/*--------------------------------*- C++ -*----------------------------------*\
| =========                 |                                                 |
| \\      /  F ield         | OpenFOAM: The Open Source CFD Toolbox           |
|  \\    /   O peration     | Version:  4.x                                   |
|   \\  /    A nd           | Web:      www.OpenFOAM.org                      |
|    \\/     M anipulation  |                                                 |
\*---------------------------------------------------------------------------*/
FoamFile
{
    version     2.0;
    format      ascii;
    class       volScalarField;
    location    "98.96";
    object      epsilon;
}
// * * * * * * * * * * * * * * * * * * * * * * * * * * * * * * * * * * * * * //

dimensions      [0 2 -3 0 0 0 0];

internalField   nonuniform List<scalar> 
15625
(
0.0013459
0.00165143
0.00229361
0.0032347
0.00440989
0.00574676
0.00718031
0.00865971
0.0101489
0.0116243
0.0130715
0.0144826
0.0158536
0.0171834
0.0184721
0.0197209
0.0209314
0.0221051
0.023244
0.0243498
0.0254241
0.0264685
0.0274846
0.0284738
0.0294373
0.0303763
0.031292
0.0321855
0.0330577
0.0339094
0.0347417
0.0355552
0.0363507
0.0371289
0.0378904
0.0386359
0.0393659
0.040081
0.0407816
0.0414683
0.0421415
0.0428016
0.0434491
0.0440842
0.0447074
0.045319
0.0459193
0.0465086
0.0470872
0.0476553
0.0482133
0.0487614
0.0492997
0.0498285
0.0503481
0.0508586
0.0513602
0.051853
0.0523373
0.0528132
0.0532808
0.0537403
0.0541918
0.0546355
0.0550714
0.0554997
0.0559204
0.0563337
0.0567397
0.0571384
0.05753
0.0579145
0.0582919
0.0586624
0.059026
0.0593827
0.0597326
0.0600758
0.0604123
0.0607421
0.0610653
0.0613819
0.0616919
0.0619953
0.0622922
0.0625826
0.0628665
0.0631439
0.0634147
0.0636791
0.0639369
0.0641882
0.064433
0.0646713
0.0649029
0.0651281
0.0653466
0.0655584
0.0657636
0.0659621
0.0661539
0.0663389
0.0665171
0.0666883
0.0668527
0.0670101
0.0671604
0.0673037
0.0674397
0.0675686
0.0676901
0.0678042
0.0679108
0.0680099
0.0681013
0.068185
0.0682609
0.0683288
0.0683886
0.0684403
0.0684837
0.0685186
0.0685451
0.0685628
0.0685718
0.00165143
0.00112818
0.00115324
0.00141803
0.00180618
0.00226081
0.00274853
0.0032483
0.00374699
0.00423677
0.00471336
0.00517472
0.00562018
0.00604984
0.00646424
0.00686413
0.00725031
0.0076236
0.00798479
0.00833462
0.00867378
0.0090029
0.00932256
0.00963329
0.00993558
0.0102299
0.0105166
0.0107961
0.0110687
0.0113348
0.0115946
0.0118485
0.0120966
0.0123393
0.0125767
0.012809
0.0130365
0.0132593
0.0134776
0.0136915
0.0139012
0.0141068
0.0143085
0.0145064
0.0147005
0.0148911
0.0150781
0.0152618
0.0154421
0.0156192
0.0157932
0.0159641
0.016132
0.016297
0.0164591
0.0166184
0.016775
0.0169289
0.0170801
0.0172287
0.0173748
0.0175184
0.0176596
0.0177983
0.0179346
0.0180686
0.0182002
0.0183296
0.0184566
0.0185815
0.0187041
0.0188245
0.0189428
0.0190589
0.0191729
0.0192847
0.0193944
0.0195021
0.0196077
0.0197112
0.0198126
0.019912
0.0200093
0.0201046
0.0201979
0.0202891
0.0203784
0.0204655
0.0205507
0.0206338
0.0207149
0.0207939
0.0208709
0.0209459
0.0210188
0.0210897
0.0211585
0.0212252
0.0212898
0.0213523
0.0214127
0.021471
0.0215271
0.0215811
0.0216328
0.0216824
0.0217298
0.021775
0.0218179
0.0218585
0.0218968
0.0219328
0.0219664
0.0219977
0.0220265
0.0220529
0.0220768
0.0220982
0.0221171
0.0221334
0.0221471
0.0221581
0.0221665
0.0221721
0.0221749
0.00229361
0.00115324
0.000854288
0.000867371
0.0010126
0.00121852
0.00145241
0.00169758
0.001945
0.00218971
0.00242906
0.0026618
0.00288744
0.00310592
0.00331744
0.0035223
0.00372085
0.00391344
0.00410043
0.00428215
0.00445889
0.00463094
0.00479855
0.00496197
0.0051214
0.00527706
0.0054291
0.00557772
0.00572305
0.00586525
0.00600444
0.00614075
0.00627428
0.00640515
0.00653346
0.00665929
0.00678273
0.00690386
0.00702276
0.0071395
0.00725414
0.00736675
0.00747737
0.00758608
0.00769292
0.00779793
0.00790117
0.00800268
0.0081025
0.00820067
0.00829721
0.00839218
0.0084856
0.0085775
0.00866791
0.00875686
0.00884437
0.00893047
0.00901517
0.00909851
0.00918051
0.00926117
0.00934053
0.00941859
0.00949537
0.00957089
0.00964516
0.00971819
0.00979
0.00986059
0.00992998
0.00999818
0.0100652
0.010131
0.0101957
0.0102592
0.0103215
0.0103827
0.0104428
0.0105017
0.0105594
0.010616
0.0106715
0.0107259
0.0107791
0.0108311
0.0108821
0.0109319
0.0109805
0.011028
0.0110744
0.0111196
0.0111637
0.0112066
0.0112483
0.0112889
0.0113283
0.0113666
0.0114036
0.0114395
0.0114741
0.0115075
0.0115397
0.0115707
0.0116005
0.0116289
0.0116562
0.0116821
0.0117067
0.0117301
0.0117521
0.0117728
0.0117921
0.0118101
0.0118267
0.0118418
0.0118556
0.0118679
0.0118788
0.0118882
0.011896
0.0119024
0.0119072
0.0119104
0.011912
0.0032347
0.00141803
0.000867371
0.000744985
0.000788638
0.000902584
0.00104727
0.00120484
0.00136663
0.00152832
0.00168769
0.00184366
0.00199577
0.00214387
0.002288
0.00242829
0.00256489
0.002698
0.00282777
0.0029544
0.00307802
0.0031988
0.00331687
0.00343236
0.00354538
0.00365603
0.00376442
0.00387064
0.00397477
0.00407688
0.00417706
0.00427537
0.00437187
0.00446662
0.00455968
0.00465109
0.00474091
0.00482917
0.00491594
0.00500123
0.0050851
0.00516758
0.0052487
0.00532849
0.00540699
0.00548422
0.0055602
0.00563498
0.00570857
0.00578099
0.00585226
0.00592241
0.00599146
0.00605942
0.00612631
0.00619215
0.00625695
0.00632074
0.00638352
0.0064453
0.00650611
0.00656594
0.00662482
0.00668276
0.00673976
0.00679583
0.00685098
0.00690522
0.00695856
0.00701101
0.00706256
0.00711323
0.00716303
0.00721196
0.00726001
0.00730721
0.00735354
0.00739902
0.00744364
0.00748741
0.00753034
0.00757241
0.00761364
0.00765402
0.00769356
0.00773225
0.00777009
0.00780709
0.00784324
0.00787854
0.00791298
0.00794657
0.0079793
0.00801117
0.00804218
0.00807231
0.00810158
0.00812996
0.00815746
0.00818407
0.00820979
0.0082346
0.00825851
0.0082815
0.00830356
0.0083247
0.00834489
0.00836413
0.00838241
0.00839973
0.00841606
0.0084314
0.00844574
0.00845906
0.00847136
0.00848261
0.00849282
0.00850195
0.00851
0.00851695
0.00852279
0.0085275
0.00853105
0.00853344
0.00853465
0.00440989
0.00180618
0.0010126
0.000788638
0.000770461
0.000833897
0.000931333
0.00104298
0.00116001
0.00127826
0.00139569
0.00151132
0.0016247
0.00173566
0.00184416
0.00195025
0.002054
0.00215551
0.00225488
0.00235219
0.00244755
0.00254103
0.0026327
0.00272265
0.00281093
0.00289761
0.00298274
0.00306636
0.00314854
0.00322931
0.00330871
0.00338679
0.00346357
0.0035391
0.00361339
0.0036865
0.00375843
0.00382922
0.0038989
0.00396748
0.004035
0.00410146
0.0041669
0.00423133
0.00429477
0.00435723
0.00441875
0.00447932
0.00453896
0.0045977
0.00465554
0.0047125
0.00476859
0.00482382
0.00487821
0.00493176
0.00498448
0.00503639
0.00508749
0.0051378
0.00518732
0.00523605
0.00528402
0.00533122
0.00537766
0.00542335
0.0054683
0.00551251
0.00555598
0.00559872
0.00564073
0.00568203
0.00572261
0.00576248
0.00580164
0.00584009
0.00587783
0.00591488
0.00595123
0.00598688
0.00602183
0.00605609
0.00608966
0.00612253
0.00615471
0.00618619
0.00621698
0.00624708
0.00627648
0.00630519
0.0063332
0.0063605
0.00638711
0.00641301
0.00643821
0.00646269
0.00648647
0.00650952
0.00653185
0.00655346
0.00657434
0.00659448
0.00661388
0.00663254
0.00665044
0.00666759
0.00668396
0.00669957
0.0067144
0.00672844
0.00674168
0.00675412
0.00676574
0.00677654
0.0067865
0.00679563
0.00680389
0.00681129
0.00681782
0.00682345
0.00682818
0.00683199
0.00683487
0.00683681
0.00683779
0.00574676
0.00226081
0.00121852
0.000902584
0.000833897
0.000858541
0.00092114
0.000999921
0.00108555
0.00117373
0.00126236
0.00135041
0.00143738
0.00152302
0.00160722
0.00168998
0.0017713
0.00185122
0.00192978
0.00200703
0.00208301
0.00215776
0.00223133
0.00230374
0.00237504
0.00244525
0.0025144
0.00258251
0.00264962
0.00271574
0.00278089
0.0028451
0.00290838
0.00297075
0.00303223
0.00309282
0.00315255
0.00321143
0.00326948
0.00332669
0.0033831
0.0034387
0.00349351
0.00354754
0.0036008
0.0036533
0.00370505
0.00375606
0.00380634
0.00385589
0.00390472
0.00395284
0.00400026
0.00404698
0.00409302
0.00413837
0.00418305
0.00422706
0.0042704
0.00431309
0.00435512
0.00439651
0.00443725
0.00447735
0.00451682
0.00455567
0.00459388
0.00463147
0.00466845
0.0047048
0.00474055
0.00477569
0.00481022
0.00484414
0.00487746
0.00491019
0.00494231
0.00497384
0.00500477
0.00503511
0.00506486
0.00509401
0.00512257
0.00515054
0.00517792
0.0052047
0.0052309
0.0052565
0.00528151
0.00530592
0.00532974
0.00535296
0.00537558
0.0053976
0.00541901
0.00543982
0.00546003
0.00547962
0.00549859
0.00551695
0.00553468
0.00555179
0.00556826
0.0055841
0.0055993
0.00561386
0.00562776
0.00564101
0.00565359
0.0056655
0.00567674
0.00568729
0.00569715
0.00570632
0.00571477
0.00572251
0.00572952
0.0057358
0.00574133
0.0057461
0.00575011
0.00575335
0.00575579
0.00575743
0.00575826
0.00718031
0.00274853
0.00145241
0.00104727
0.000931333
0.00092114
0.00095393
0.00100576
0.00106645
0.00113126
0.00119784
0.00126497
0.00133201
0.0013986
0.00146456
0.0015298
0.00159427
0.00165796
0.00172086
0.00178298
0.00184434
0.00190494
0.00196481
0.00202394
0.00208235
0.00214006
0.00219707
0.0022534
0.00230904
0.00236402
0.00241833
0.00247198
0.00252498
0.00257734
0.00262906
0.00268014
0.0027306
0.00278043
0.00282964
0.00287824
0.00292622
0.0029736
0.00302037
0.00306655
0.00311213
0.00315712
0.00320152
0.00324534
0.00328858
0.00333124
0.00337332
0.00341484
0.00345578
0.00349616
0.00353598
0.00357525
0.00361395
0.0036521
0.00368971
0.00372676
0.00376327
0.00379923
0.00383466
0.00386955
0.0039039
0.00393772
0.003971
0.00400376
0.00403599
0.00406769
0.00409887
0.00412952
0.00415965
0.00418926
0.00421836
0.00424693
0.00427498
0.00430252
0.00432954
0.00435605
0.00438204
0.00440751
0.00443247
0.00445692
0.00448084
0.00450425
0.00452715
0.00454953
0.00457138
0.00459272
0.00461354
0.00463383
0.00465361
0.00467285
0.00469157
0.00470975
0.00472741
0.00474452
0.0047611
0.00477714
0.00479264
0.00480758
0.00482198
0.00483581
0.00484909
0.00486181
0.00487395
0.00488552
0.00489651
0.00490691
0.00491672
0.00492593
0.00493454
0.00494254
0.00494992
0.00495668
0.0049628
0.00496828
0.00497311
0.00497728
0.00498078
0.0049836
0.00498573
0.00498716
0.00498789
0.00865971
0.0032483
0.00169758
0.00120484
0.00104298
0.000999921
0.00100576
0.00103417
0.00107386
0.00111946
0.00116821
0.00121861
0.00126983
0.00132139
0.00137299
0.00142445
0.00147568
0.0015266
0.00157718
0.00162738
0.0016772
0.00172662
0.00177563
0.00182424
0.00187242
0.00192019
0.00196753
0.00201445
0.00206094
0.00210701
0.00215264
0.00219784
0.0022426
0.00228693
0.00233082
0.00237427
0.00241728
0.00245984
0.00250196
0.00254364
0.00258486
0.00262564
0.00266597
0.00270585
0.00274528
0.00278425
0.00282278
0.00286085
0.00289846
0.00293562
0.00297233
0.00300858
0.00304438
0.00307973
0.00311461
0.00314905
0.00318303
0.00321655
0.00324962
0.00328223
0.00331439
0.00334609
0.00337734
0.00340814
0.00343848
0.00346837
0.00349781
0.0035268
0.00355533
0.00358341
0.00361103
0.00363821
0.00366493
0.0036912
0.00371702
0.00374239
0.00376731
0.00379177
0.00381578
0.00383934
0.00386245
0.0038851
0.0039073
0.00392904
0.00395033
0.00397116
0.00399154
0.00401145
0.00403091
0.00404991
0.00406844
0.00408651
0.00410412
0.00412126
0.00413792
0.00415412
0.00416984
0.00418509
0.00419986
0.00421414
0.00422794
0.00424126
0.00425408
0.0042664
0.00427823
0.00428955
0.00430037
0.00431067
0.00432046
0.00432972
0.00433846
0.00434667
0.00435434
0.00436146
0.00436803
0.00437405
0.0043795
0.00438438
0.00438868
0.00439239
0.00439551
0.00439802
0.00439992
0.0044012
0.00440184
0.0101489
0.00374699
0.001945
0.00136663
0.00116001
0.00108555
0.00106645
0.00107386
0.00109523
0.00112442
0.0011582
0.00119474
0.00123297
0.00127225
0.00131217
0.00135247
0.00139297
0.00143356
0.00147416
0.00151471
0.00155517
0.00159551
0.00163571
0.00167573
0.00171557
0.00175522
0.00179465
0.00183386
0.00187284
0.00191157
0.00195006
0.00198829
0.00202626
0.00206395
0.00210136
0.00213849
0.00217532
0.00221186
0.0022481
0.00228403
0.00231964
0.00235493
0.00238991
0.00242455
0.00245887
0.00249285
0.00252649
0.00255978
0.00259273
0.00262533
0.00265758
0.00268947
0.00272101
0.00275218
0.00278299
0.00281343
0.00284351
0.00287321
0.00290254
0.0029315
0.00296008
0.00298829
0.00301611
0.00304355
0.00307062
0.00309729
0.00312359
0.00314949
0.00317501
0.00320015
0.00322489
0.00324924
0.0032732
0.00329677
0.00331994
0.00334272
0.0033651
0.00338709
0.00340867
0.00342986
0.00345065
0.00347104
0.00349103
0.00351061
0.00352979
0.00354856
0.00356692
0.00358488
0.00360242
0.00361955
0.00363627
0.00365257
0.00366846
0.00368392
0.00369897
0.00371359
0.00372778
0.00374155
0.00375488
0.00376778
0.00378025
0.00379227
0.00380385
0.00381498
0.00382567
0.00383589
0.00384567
0.00385497
0.00386382
0.00387219
0.00388008
0.0038875
0.00389442
0.00390086
0.0039068
0.00391223
0.00391716
0.00392157
0.00392545
0.00392881
0.00393163
0.0039339
0.00393561
0.00393676
0.00393735
0.0116243
0.00423677
0.00218971
0.00152832
0.00127826
0.00117373
0.00113126
0.00111946
0.00112442
0.00113921
0.00116005
0.00118475
0.00121201
0.00124099
0.00127117
0.00130219
0.0013338
0.00136584
0.00139819
0.00143076
0.00146349
0.00149631
0.00152919
0.0015621
0.00159501
0.00162789
0.00166073
0.0016935
0.0017262
0.0017588
0.00179129
0.00182367
0.00185591
0.00188801
0.00191996
0.00195175
0.00198337
0.00201481
0.00204605
0.00207711
0.00210796
0.00213859
0.00216901
0.00219921
0.00222917
0.00225889
0.00228837
0.00231761
0.00234658
0.0023753
0.00240374
0.00243192
0.00245982
0.00248745
0.00251478
0.00254183
0.00256859
0.00259505
0.00262121
0.00264706
0.00267261
0.00269785
0.00272277
0.00274738
0.00277167
0.00279563
0.00281927
0.00284259
0.00286557
0.00288822
0.00291054
0.00293252
0.00295416
0.00297546
0.00299642
0.00301704
0.0030373
0.00305722
0.00307679
0.00309601
0.00311487
0.00313338
0.00315153
0.00316932
0.00318675
0.00320382
0.00322052
0.00323686
0.00325282
0.00326842
0.00328364
0.00329849
0.00331297
0.00332706
0.00334077
0.0033541
0.00336704
0.0033796
0.00339176
0.00340353
0.0034149
0.00342587
0.00343644
0.0034466
0.00345635
0.00346569
0.00347461
0.00348311
0.00349118
0.00349883
0.00350604
0.00351281
0.00351914
0.00352501
0.00353044
0.0035354
0.0035399
0.00354393
0.00354748
0.00355054
0.00355312
0.00355519
0.00355676
0.00355781
0.00355834
0.0130715
0.00471336
0.00242906
0.00168769
0.00139569
0.00126236
0.00119784
0.00116821
0.0011582
0.00116005
0.00116942
0.00118378
0.00120154
0.00122168
0.00124355
0.0012667
0.0012908
0.00131563
0.00134103
0.00136689
0.0013931
0.00141961
0.00144634
0.00147325
0.00150032
0.0015275
0.00155476
0.00158209
0.00160946
0.00163686
0.00166426
0.00169165
0.00171901
0.00174634
0.00177362
0.00180083
0.00182797
0.00185503
0.00188199
0.00190885
0.00193559
0.00196221
0.0019887
0.00201504
0.00204124
0.00206728
0.00209316
0.00211887
0.0021444
0.00216974
0.00219489
0.00221985
0.0022446
0.00226913
0.00229346
0.00231756
0.00234143
0.00236508
0.00238848
0.00241164
0.00243456
0.00245722
0.00247963
0.00250178
0.00252367
0.00254529
0.00256664
0.00258771
0.00260851
0.00262902
0.00264925
0.00266918
0.00268883
0.00270819
0.00272724
0.002746
0.00276446
0.00278261
0.00280045
0.00281798
0.0028352
0.0028521
0.00286869
0.00288495
0.00290089
0.00291651
0.0029318
0.00294677
0.0029614
0.00297569
0.00298965
0.00300327
0.00301655
0.00302949
0.00304208
0.00305432
0.00306621
0.00307775
0.00308892
0.00309974
0.0031102
0.00312029
0.00313001
0.00313935
0.00314833
0.00315692
0.00316513
0.00317295
0.00318038
0.00318742
0.00319406
0.0032003
0.00320612
0.00321154
0.00321653
0.00322111
0.00322525
0.00322896
0.00323223
0.00323505
0.00323742
0.00323934
0.00324078
0.00324175
0.00324224
0.0144826
0.00517472
0.0026618
0.00184366
0.00151132
0.00135041
0.00126497
0.00121861
0.00119474
0.00118475
0.00118378
0.00118889
0.00119825
0.00121066
0.00122531
0.00124164
0.00125927
0.00127793
0.00129739
0.00131751
0.00133818
0.00135929
0.00138078
0.00140259
0.00142467
0.00144697
0.00146948
0.00149215
0.00151496
0.00153788
0.00156091
0.00158401
0.00160718
0.00163039
0.00165363
0.00167689
0.00170015
0.00172341
0.00174664
0.00176985
0.00179301
0.00181613
0.00183918
0.00186217
0.00188507
0.00190789
0.00193061
0.00195322
0.00197572
0.0019981
0.00202035
0.00204247
0.00206444
0.00208626
0.00210793
0.00212943
0.00215077
0.00217192
0.0021929
0.00221369
0.00223428
0.00225468
0.00227487
0.00229486
0.00231463
0.00233418
0.00235351
0.00237261
0.00239147
0.00241011
0.0024285
0.00244664
0.00246454
0.00248218
0.00249957
0.0025167
0.00253357
0.00255017
0.0025665
0.00258256
0.00259835
0.00261385
0.00262907
0.00264401
0.00265866
0.00267302
0.00268709
0.00270086
0.00271433
0.0027275
0.00274037
0.00275293
0.00276518
0.00277712
0.00278874
0.00280004
0.00281103
0.00282168
0.00283202
0.00284202
0.00285169
0.00286102
0.00287001
0.00287867
0.00288697
0.00289493
0.00290253
0.00290977
0.00291666
0.00292318
0.00292933
0.00293511
0.00294051
0.00294553
0.00295016
0.0029544
0.00295824
0.00296168
0.00296471
0.00296733
0.00296953
0.0029713
0.00297264
0.00297354
0.002974
0.0158536
0.00562018
0.00288744
0.00199577
0.0016247
0.00143738
0.00133201
0.00126983
0.00123297
0.00121201
0.00120154
0.00119825
0.00120005
0.00120556
0.00121381
0.00122416
0.00123614
0.00124941
0.00126372
0.00127888
0.00129475
0.00131121
0.00132818
0.00134558
0.00136336
0.00138147
0.00139986
0.00141851
0.00143738
0.00145644
0.00147567
0.00149506
0.00151457
0.0015342
0.00155393
0.00157373
0.00159361
0.00161354
0.00163352
0.00165352
0.00167355
0.00169358
0.00171361
0.00173363
0.00175362
0.00177359
0.00179351
0.00181339
0.00183321
0.00185296
0.00187263
0.00189223
0.00191173
0.00193113
0.00195043
0.00196962
0.00198869
0.00200763
0.00202643
0.0020451
0.00206362
0.002082
0.00210021
0.00211826
0.00213613
0.00215384
0.00217136
0.0021887
0.00220585
0.0022228
0.00223955
0.00225609
0.00227243
0.00228855
0.00230445
0.00232013
0.00233559
0.00235081
0.0023658
0.00238055
0.00239506
0.00240932
0.00242334
0.0024371
0.00245061
0.00246385
0.00247684
0.00248956
0.00250201
0.00251418
0.00252609
0.00253771
0.00254906
0.00256011
0.00257089
0.00258137
0.00259155
0.00260145
0.00261104
0.00262032
0.00262931
0.00263798
0.00264634
0.00265438
0.0026621
0.0026695
0.00267658
0.00268332
0.00268973
0.0026958
0.00270152
0.00270691
0.00271194
0.00271661
0.00272093
0.00272488
0.00272846
0.00273166
0.00273449
0.00273693
0.00273898
0.00274063
0.00274188
0.00274272
0.00274314
0.0171834
0.00604984
0.00310592
0.00214387
0.00173566
0.00152302
0.0013986
0.00132139
0.00127225
0.00124099
0.00122168
0.00121066
0.00120556
0.0012048
0.0012073
0.00121231
0.00121927
0.00122778
0.00123756
0.00124837
0.00126004
0.00127245
0.00128548
0.00129904
0.00131308
0.00132753
0.00134235
0.00135749
0.00137293
0.00138862
0.00140454
0.00142068
0.001437
0.00145349
0.00147014
0.00148692
0.00150381
0.00152082
0.00153792
0.0015551
0.00157234
0.00158965
0.001607
0.00162439
0.0016418
0.00165923
0.00167666
0.0016941
0.00171152
0.00172892
0.00174629
0.00176362
0.00178091
0.00179815
0.00181532
0.00183242
0.00184945
0.0018664
0.00188325
0.00190001
0.00191666
0.00193321
0.00194963
0.00196593
0.0019821
0.00199814
0.00201403
0.00202977
0.00204537
0.0020608
0.00207607
0.00209117
0.00210609
0.00212084
0.0021354
0.00214977
0.00216395
0.00217793
0.00219171
0.00220528
0.00221864
0.00223179
0.00224472
0.00225742
0.0022699
0.00228215
0.00229416
0.00230593
0.00231747
0.00232875
0.00233979
0.00235058
0.00236112
0.00237139
0.0023814
0.00239115
0.00240063
0.00240984
0.00241877
0.00242742
0.00243579
0.00244387
0.00245167
0.00245917
0.00246638
0.00247329
0.00247989
0.00248619
0.00249218
0.00249785
0.0025032
0.00250823
0.00251293
0.00251731
0.00252134
0.00252504
0.00252839
0.00253139
0.00253403
0.00253631
0.00253823
0.00253978
0.00254095
0.00254173
0.00254213
0.0184721
0.00646424
0.00331744
0.002288
0.00184416
0.00160722
0.00146456
0.00137299
0.00131217
0.00127117
0.00124355
0.00122531
0.00121381
0.0012073
0.00120456
0.00120473
0.00120717
0.00121143
0.00121716
0.00122411
0.00123208
0.00124091
0.00125047
0.00126066
0.00127142
0.00128266
0.00129434
0.00130641
0.00131882
0.00133156
0.00134457
0.00135785
0.00137136
0.00138509
0.00139902
0.00141312
0.00142739
0.00144181
0.00145636
0.00147103
0.00148581
0.00150069
0.00151565
0.00153069
0.00154579
0.00156096
0.00157616
0.0015914
0.00160667
0.00162196
0.00163726
0.00165256
0.00166785
0.00168312
0.00169838
0.0017136
0.00172878
0.00174392
0.001759
0.00177403
0.00178898
0.00180386
0.00181866
0.00183337
0.00184799
0.0018625
0.00187691
0.0018912
0.00190538
0.00191943
0.00193334
0.00194712
0.00196076
0.00197425
0.00198759
0.00200077
0.00201379
0.00202663
0.00203931
0.0020518
0.00206412
0.00207625
0.00208818
0.00209992
0.00211147
0.0021228
0.00213393
0.00214485
0.00215555
0.00216603
0.00217629
0.00218632
0.00219612
0.00220568
0.00221501
0.00222409
0.00223293
0.00224152
0.00224985
0.00225793
0.00226575
0.0022733
0.00228059
0.00228761
0.00229435
0.00230082
0.002307
0.0023129
0.00231851
0.00232382
0.00232884
0.00233355
0.00233796
0.00234206
0.00234585
0.00234932
0.00235246
0.00235527
0.00235776
0.0023599
0.0023617
0.00236315
0.00236425
0.00236499
0.00236536
0.0197209
0.00686413
0.0035223
0.00242829
0.00195025
0.00168998
0.0015298
0.00142445
0.00135247
0.00130219
0.0012667
0.00124164
0.00122416
0.00121231
0.00120473
0.00120045
0.00119878
0.00119918
0.00120128
0.00120476
0.00120941
0.00121505
0.00122153
0.00122873
0.00123658
0.00124498
0.00125388
0.00126323
0.00127299
0.0012831
0.00129355
0.0013043
0.00131533
0.00132661
0.00133812
0.00134985
0.00136178
0.0013739
0.00138618
0.00139861
0.00141119
0.0014239
0.00143673
0.00144967
0.0014627
0.00147583
0.00148903
0.0015023
0.00151563
0.00152901
0.00154243
0.00155589
0.00156937
0.00158287
0.00159638
0.00160989
0.00162339
0.00163688
0.00165035
0.00166379
0.0016772
0.00169056
0.00170387
0.00171712
0.00173032
0.00174344
0.00175648
0.00176944
0.00178232
0.00179509
0.00180777
0.00182034
0.00183279
0.00184513
0.00185734
0.00186942
0.00188137
0.00189317
0.00190483
0.00191634
0.00192769
0.00193888
0.00194991
0.00196076
0.00197145
0.00198195
0.00199226
0.00200239
0.00201233
0.00202207
0.00203161
0.00204094
0.00205007
0.00205898
0.00206768
0.00207615
0.00208441
0.00209243
0.00210022
0.00210777
0.00211509
0.00212216
0.00212899
0.00213556
0.00214188
0.00214795
0.00215375
0.00215928
0.00216454
0.00216953
0.00217425
0.00217868
0.00218282
0.00218667
0.00219023
0.00219349
0.00219645
0.00219909
0.00220143
0.00220345
0.00220514
0.00220651
0.00220754
0.00220823
0.00220858
0.0209314
0.00725031
0.00372085
0.00256489
0.002054
0.0017713
0.00159427
0.00147568
0.00139297
0.0013338
0.0012908
0.00125927
0.00123614
0.00121927
0.00120717
0.00119878
0.00119331
0.00119018
0.00118896
0.0011893
0.00119096
0.00119373
0.00119744
0.00120197
0.00120721
0.00121308
0.00121952
0.00122645
0.00123383
0.00124162
0.00124978
0.00125828
0.0012671
0.0012762
0.00128557
0.00129518
0.00130503
0.00131508
0.00132533
0.00133577
0.00134638
0.00135714
0.00136805
0.0013791
0.00139027
0.00140156
0.00141295
0.00142444
0.00143601
0.00144767
0.00145939
0.00147117
0.00148301
0.00149489
0.00150681
0.00151876
0.00153073
0.00154272
0.00155471
0.0015667
0.00157868
0.00159065
0.00160259
0.00161451
0.00162639
0.00163823
0.00165001
0.00166175
0.00167342
0.00168502
0.00169655
0.001708
0.00171936
0.00173062
0.00174179
0.00175286
0.00176381
0.00177465
0.00178537
0.00179596
0.00180642
0.00181674
0.00182692
0.00183696
0.00184684
0.00185657
0.00186613
0.00187553
0.00188476
0.00189381
0.00190269
0.00191138
0.00191988
0.00192819
0.00193631
0.00194422
0.00195193
0.00195943
0.00196672
0.00197379
0.00198064
0.00198727
0.00199367
0.00199984
0.00200577
0.00201146
0.00201691
0.00202211
0.00202705
0.00203174
0.00203618
0.00204034
0.00204424
0.00204787
0.00205122
0.00205429
0.00205707
0.00205957
0.00206177
0.00206367
0.00206527
0.00206655
0.00206753
0.00206818
0.00206851
0.0221051
0.0076236
0.00391344
0.002698
0.00215551
0.00185122
0.00165796
0.0015266
0.00143356
0.00136584
0.00131563
0.00127793
0.00124941
0.00122778
0.00121143
0.00119918
0.00119018
0.00118378
0.00117951
0.00117698
0.0011759
0.00117606
0.00117727
0.00117938
0.00118229
0.00118589
0.0011901
0.00119487
0.00120013
0.00120584
0.00121196
0.00121845
0.00122528
0.00123244
0.00123988
0.0012476
0.00125558
0.00126379
0.00127222
0.00128086
0.00128969
0.00129871
0.00130789
0.00131723
0.00132672
0.00133634
0.0013461
0.00135597
0.00136596
0.00137604
0.00138622
0.00139648
0.00140682
0.00141722
0.00142769
0.00143821
0.00144877
0.00145938
0.00147001
0.00148067
0.00149134
0.00150202
0.00151271
0.00152339
0.00153406
0.00154471
0.00155534
0.00156593
0.00157649
0.001587
0.00159746
0.00160787
0.00161821
0.00162849
0.00163868
0.0016488
0.00165883
0.00166877
0.00167861
0.00168835
0.00169798
0.00170749
0.00171688
0.00172615
0.00173529
0.00174429
0.00175315
0.00176187
0.00177044
0.00177885
0.0017871
0.00179519
0.00180312
0.00181086
0.00181844
0.00182583
0.00183303
0.00184005
0.00184687
0.00185349
0.00185991
0.00186612
0.00187212
0.00187791
0.00188348
0.00188883
0.00189395
0.00189883
0.00190349
0.0019079
0.00191207
0.001916
0.00191967
0.00192309
0.00192625
0.00192914
0.00193177
0.00193412
0.00193619
0.00193799
0.00193949
0.00194071
0.00194163
0.00194224
0.00194256
0.023244
0.00798479
0.00410043
0.00282777
0.00225488
0.00192978
0.00172086
0.00157718
0.00147416
0.00139819
0.00134103
0.00129739
0.00126372
0.00123756
0.00121716
0.00120128
0.00118896
0.00117951
0.00117239
0.0011672
0.00116361
0.00116138
0.00116031
0.00116022
0.00116101
0.00116255
0.00116476
0.00116757
0.00117093
0.00117476
0.00117904
0.00118373
0.00118879
0.00119419
0.00119991
0.00120592
0.00121222
0.00121877
0.00122556
0.00123258
0.00123981
0.00124725
0.00125487
0.00126267
0.00127063
0.00127875
0.00128702
0.00129543
0.00130396
0.00131262
0.00132138
0.00133026
0.00133922
0.00134828
0.00135741
0.00136662
0.0013759
0.00138523
0.00139461
0.00140404
0.00141351
0.001423
0.00143252
0.00144206
0.00145161
0.00146116
0.0014707
0.00148024
0.00148976
0.00149926
0.00150873
0.00151816
0.00152756
0.0015369
0.0015462
0.00155543
0.00156459
0.00157369
0.00158271
0.00159164
0.00160049
0.00160924
0.0016179
0.00162645
0.00163489
0.00164321
0.00165141
0.00165949
0.00166744
0.00167525
0.00168292
0.00169045
0.00169782
0.00170504
0.0017121
0.001719
0.00172573
0.00173229
0.00173867
0.00174487
0.00175089
0.00175671
0.00176234
0.00176777
0.001773
0.00177802
0.00178284
0.00178743
0.00179181
0.00179597
0.0017999
0.00180359
0.00180706
0.00181028
0.00181325
0.00181598
0.00181846
0.00182068
0.00182264
0.00182433
0.00182575
0.0018269
0.00182777
0.00182835
0.00182865
0.0243498
0.00833462
0.00428215
0.0029544
0.00235219
0.00200703
0.00178298
0.00162738
0.00151471
0.00143076
0.00136689
0.00131751
0.00127888
0.00124837
0.00122411
0.00120476
0.0011893
0.00117698
0.0011672
0.00115953
0.00115361
0.00114917
0.00114599
0.0011439
0.00114274
0.00114241
0.0011428
0.00114384
0.00114546
0.0011476
0.00115022
0.00115328
0.00115673
0.00116055
0.00116471
0.00116919
0.00117397
0.00117902
0.00118433
0.00118989
0.00119567
0.00120167
0.00120788
0.00121428
0.00122086
0.00122761
0.00123453
0.0012416
0.00124881
0.00125617
0.00126364
0.00127124
0.00127895
0.00128677
0.00129468
0.00130269
0.00131077
0.00131894
0.00132717
0.00133546
0.00134381
0.00135221
0.00136065
0.00136913
0.00137763
0.00138616
0.0013947
0.00140325
0.00141181
0.00142036
0.0014289
0.00143743
0.00144593
0.00145441
0.00146285
0.00147125
0.00147961
0.00148791
0.00149616
0.00150434
0.00151245
0.00152049
0.00152845
0.00153632
0.0015441
0.00155178
0.00155936
0.00156684
0.0015742
0.00158144
0.00158856
0.00159555
0.00160241
0.00160914
0.00161572
0.00162215
0.00162843
0.00163456
0.00164053
0.00164633
0.00165196
0.00165741
0.00166269
0.00166779
0.0016727
0.00167742
0.00168194
0.00168626
0.00169038
0.00169429
0.00169799
0.00170147
0.00170474
0.00170777
0.00171058
0.00171315
0.00171549
0.00171759
0.00171943
0.00172103
0.00172237
0.00172346
0.00172428
0.00172483
0.00172511
0.0254241
0.00867378
0.00445889
0.00307802
0.00244755
0.00208301
0.00184434
0.0016772
0.00155517
0.00146349
0.0013931
0.00133818
0.00129475
0.00126004
0.00123208
0.00120941
0.00119096
0.0011759
0.00116361
0.00115361
0.00114551
0.00113902
0.00113389
0.00112993
0.00112699
0.00112493
0.00112366
0.00112308
0.00112313
0.00112373
0.00112484
0.00112641
0.00112841
0.0011308
0.00113355
0.00113664
0.00114004
0.00114373
0.0011477
0.00115193
0.0011564
0.0011611
0.00116602
0.00117115
0.00117647
0.00118198
0.00118766
0.00119351
0.00119952
0.00120568
0.00121198
0.00121841
0.00122497
0.00123165
0.00123844
0.00124533
0.00125233
0.00125941
0.00126658
0.00127382
0.00128114
0.00128852
0.00129595
0.00130344
0.00131098
0.00131855
0.00132616
0.00133379
0.00134144
0.00134911
0.00135678
0.00136446
0.00137213
0.00137979
0.00138743
0.00139505
0.00140265
0.0014102
0.00141772
0.00142519
0.00143261
0.00143998
0.00144727
0.00145451
0.00146166
0.00146874
0.00147573
0.00148263
0.00148944
0.00149614
0.00150274
0.00150922
0.0015156
0.00152185
0.00152797
0.00153396
0.00153982
0.00154554
0.00155111
0.00155653
0.0015618
0.0015669
0.00157185
0.00157663
0.00158123
0.00158566
0.00158991
0.00159397
0.00159784
0.00160152
0.001605
0.00160828
0.00161135
0.00161421
0.00161686
0.00161929
0.00162149
0.00162347
0.00162521
0.00162672
0.00162799
0.00162901
0.00162979
0.00163031
0.00163057
0.0264685
0.0090029
0.00463094
0.0031988
0.00254103
0.00215776
0.00190494
0.00172662
0.00159551
0.00149631
0.00141961
0.00135929
0.00131121
0.00127245
0.00124091
0.00121505
0.00119373
0.00117606
0.00116138
0.00114917
0.00113902
0.00113059
0.00112364
0.00111795
0.00111336
0.00110971
0.00110691
0.00110484
0.00110344
0.00110263
0.00110236
0.00110259
0.00110326
0.00110434
0.00110581
0.00110763
0.00110978
0.00111224
0.00111498
0.001118
0.00112128
0.0011248
0.00112855
0.00113252
0.00113669
0.00114106
0.00114562
0.00115036
0.00115526
0.00116033
0.00116554
0.00117091
0.00117641
0.00118204
0.00118779
0.00119367
0.00119965
0.00120573
0.00121192
0.00121819
0.00122454
0.00123098
0.00123749
0.00124406
0.00125069
0.00125737
0.00126411
0.00127088
0.00127769
0.00128452
0.00129138
0.00129826
0.00130515
0.00131204
0.00131893