/*--------------------------------*- C++ -*----------------------------------*\
| =========                 |                                                 |
| \\      /  F ield         | OpenFOAM: The Open Source CFD Toolbox           |
|  \\    /   O peration     | Version:  4.x                                   |
|   \\  /    A nd           | Web:      www.OpenFOAM.org                      |
|    \\/     M anipulation  |                                                 |
\*---------------------------------------------------------------------------*/
FoamFile
{
    version     2.0;
    format      ascii;
    class       volScalarField;
    location    "98.96";
    object      k;
}
// * * * * * * * * * * * * * * * * * * * * * * * * * * * * * * * * * * * * * //

dimensions      [0 2 -2 0 0 0 0];

internalField   nonuniform List<scalar> 
15625
(
0.000442493
0.000507153
0.000631315
0.000793942
0.000976153
0.00116461
0.00135102
0.00153074
0.00170155
0.00186271
0.00201427
0.00215673
0.00229079
0.00241716
0.00253655
0.00264962
0.00275696
0.00285909
0.00295647
0.0030495
0.00313855
0.00322393
0.00330592
0.00338477
0.0034607
0.00353391
0.00360458
0.00367287
0.00373893
0.00380288
0.00386485
0.00392495
0.00398328
0.00403993
0.00409498
0.00414852
0.00420061
0.00425133
0.00430073
0.00434887
0.00439581
0.0044416
0.00448627
0.00452989
0.00457248
0.00461409
0.00465474
0.00469448
0.00473333
0.00477133
0.00480851
0.00484488
0.00488047
0.00491531
0.00494942
0.00498282
0.00501553
0.00504756
0.00507894
0.00510968
0.0051398
0.00516931
0.00519822
0.00522655
0.00525432
0.00528152
0.00530818
0.00533431
0.0053599
0.00538499
0.00540956
0.00543363
0.00545722
0.00548031
0.00550293
0.00552508
0.00554677
0.00556799
0.00558877
0.00560909
0.00562897
0.0056484
0.00566741
0.00568598
0.00570411
0.00572183
0.00573912
0.00575598
0.00577243
0.00578846
0.00580408
0.00581928
0.00583406
0.00584844
0.0058624
0.00587594
0.00588908
0.0059018
0.00591411
0.00592601
0.00593749
0.00594855
0.00595919
0.00596942
0.00597922
0.00598861
0.00599756
0.00600608
0.00601418
0.00602183
0.00602905
0.00603582
0.00604215
0.00604803
0.00605345
0.0060584
0.0060629
0.00606692
0.00607046
0.00607351
0.00607608
0.00607815
0.00607971
0.00608076
0.00608129
0.000507153
0.000421649
0.000440291
0.000508669
0.000600711
0.000702273
0.00080548
0.000906126
0.00100219
0.00109289
0.00117813
0.00125817
0.00133339
0.00140422
0.0014711
0.00153441
0.00159451
0.0016517
0.00170626
0.00175842
0.00180838
0.00185634
0.00190245
0.00194686
0.00198968
0.00203103
0.00207101
0.0021097
0.0021472
0.00218357
0.00221887
0.00225318
0.00228653
0.00231899
0.0023506
0.0023814
0.00241142
0.00244072
0.00246931
0.00249723
0.0025245
0.00255116
0.00257723
0.00260273
0.00262768
0.00265211
0.00267602
0.00269944
0.00272239
0.00274487
0.00276691
0.00278852
0.00280971
0.00283048
0.00285086
0.00287086
0.00289047
0.00290972
0.00292861
0.00294714
0.00296534
0.00298319
0.00300072
0.00301792
0.00303481
0.00305138
0.00306765
0.00308362
0.00309929
0.00311467
0.00312976
0.00314457
0.00315909
0.00317334
0.00318731
0.00320102
0.00321445
0.00322762
0.00324052
0.00325316
0.00326553
0.00327765
0.00328952
0.00330112
0.00331247
0.00332357
0.00333441
0.003345
0.00335534
0.00336542
0.00337526
0.00338484
0.00339417
0.00340325
0.00341207
0.00342064
0.00342896
0.00343703
0.00344483
0.00345238
0.00345968
0.00346671
0.00347348
0.00347999
0.00348623
0.00349221
0.00349792
0.00350336
0.00350853
0.00351342
0.00351803
0.00352236
0.00352641
0.00353017
0.00353364
0.00353681
0.00353969
0.00354226
0.00354453
0.00354649
0.00354813
0.00354946
0.00355046
0.00355114
0.00355147
0.000631315
0.000440291
0.000408139
0.000449982
0.000527094
0.000619726
0.000717276
0.000814148
0.000907586
0.000996419
0.00108032
0.00115941
0.00123399
0.00130443
0.00137112
0.00143441
0.00149463
0.00155207
0.001607
0.00165962
0.00171015
0.00175875
0.00180557
0.00185076
0.00189442
0.00193667
0.0019776
0.0020173
0.00205585
0.00209331
0.00212974
0.00216521
0.00219977
0.00223346
0.00226633
0.00229842
0.00232977
0.0023604
0.00239035
0.00241966
0.00244834
0.00247642
0.00250392
0.00253087
0.00255729
0.00258319
0.00260859
0.00263351
0.00265797
0.00268197
0.00270553
0.00272866
0.00275137
0.00277368
0.0027956
0.00281713
0.00283828
0.00285907
0.00287949
0.00289956
0.00291929
0.00293867
0.00295772
0.00297644
0.00299484
0.00301292
0.00303069
0.00304815
0.0030653
0.00308215
0.0030987
0.00311496
0.00313092
0.0031466
0.00316199
0.00317709
0.00319191
0.00320645
0.00322071
0.00323469
0.00324839
0.00326182
0.00327497
0.00328785
0.00330045
0.00331279
0.00332484
0.00333663
0.00334814
0.00335938
0.00337034
0.00338103
0.00339145
0.00340159
0.00341145
0.00342103
0.00343034
0.00343937
0.00344811
0.00345657
0.00346474
0.00347263
0.00348022
0.00348753
0.00349454
0.00350125
0.00350766
0.00351378
0.00351958
0.00352508
0.00353027
0.00353514
0.00353969
0.00354393
0.00354783
0.0035514
0.00355464
0.00355754
0.0035601
0.00356231
0.00356416
0.00356565
0.00356678
0.00356754
0.00356792
0.000793942
0.000508669
0.000449982
0.000495912
0.000589948
0.000703388
0.000821759
0.000938092
0.0010493
0.00115428
0.00125286
0.00134536
0.00143224
0.00151403
0.00159123
0.0016643
0.00173367
0.0017997
0.0018627
0.00192296
0.00198071
0.00203617
0.00208954
0.00214096
0.0021906
0.00223858
0.00228501
0.00233
0.00237365
0.00241603
0.00245722
0.0024973
0.00253632
0.00257434
0.00261141
0.00264758
0.0026829
0.00271741
0.00275113
0.00278412
0.00281639
0.00284797
0.0028789
0.0029092
0.0029389
0.002968
0.00299655
0.00302454
0.00305201
0.00307896
0.00310542
0.00313139
0.00315689
0.00318194
0.00320654
0.00323071
0.00325445
0.00327777
0.00330069
0.00332322
0.00334535
0.0033671
0.00338848
0.00340948
0.00343013
0.00345041
0.00347034
0.00348993
0.00350917
0.00352808
0.00354665
0.00356488
0.00358279
0.00360038
0.00361764
0.00363458
0.00365121
0.00366752
0.00368351
0.00369919
0.00371457
0.00372963
0.00374438
0.00375883
0.00377297
0.0037868
0.00380033
0.00381355
0.00382646
0.00383907
0.00385136
0.00386336
0.00387504
0.00388641
0.00389747
0.00390822
0.00391866
0.00392878
0.00393859
0.00394808
0.00395724
0.00396609
0.00397461
0.0039828
0.00399066
0.00399819
0.00400539
0.00401224
0.00401876
0.00402492
0.00403074
0.0040362
0.00404131
0.00404606
0.00405044
0.00405444
0.00405808
0.00406133
0.0040642
0.00406667
0.00406875
0.00407042
0.00407169
0.00407254
0.00407297
0.000976153
0.000600711
0.000527094
0.000589948
0.00071085
0.000850686
0.000991921
0.00112748
0.00125489
0.0013737
0.00148427
0.00158728
0.0016835
0.00177365
0.0018584
0.00193836
0.00201402
0.00208585
0.00215421
0.00221946
0.00228187
0.0023417
0.00239917
0.00245448
0.00250778
0.00255924
0.00260898
0.00265713
0.00270379
0.00274906
0.00279303
0.00283577
0.00287736
0.00291786
0.00295732
0.00299581
0.00303338
0.00307005
0.00310589
0.00314092
0.00317519
0.00320872
0.00324154
0.00327369
0.00330519
0.00333606
0.00336632
0.003396
0.00342511
0.00345368
0.00348171
0.00350923
0.00353625
0.00356278
0.00358884
0.00361444
0.00363958
0.00366429
0.00368856
0.00371242
0.00373586
0.00375889
0.00378152
0.00380377
0.00382563
0.00384711
0.00386822
0.00388896
0.00390934
0.00392936
0.00394902
0.00396833
0.0039873
0.00400592
0.0040242
0.00404215
0.00405975
0.00407703
0.00409397
0.00411058
0.00412686
0.00414281
0.00415844
0.00417374
0.00418872
0.00420337
0.0042177
0.00423171
0.00424538
0.00425874
0.00427177
0.00428447
0.00429685
0.0043089
0.00432062
0.00433201
0.00434307
0.00435379
0.00436418
0.00437423
0.00438395
0.00439332
0.00440235
0.00441103
0.00441936
0.00442734
0.00443496
0.00444223
0.00444913
0.00445566
0.00446183
0.00446762
0.00447303
0.00447806
0.0044827
0.00448695
0.0044908
0.00449424
0.00449728
0.0044999
0.00450211
0.00450388
0.00450522
0.00450613
0.00450658
0.00116461
0.000702273
0.000619726
0.000703388
0.000850686
0.00101302
0.00117164
0.00132057
0.0014585
0.0015858
0.0017034
0.00181234
0.00191364
0.00200821
0.00209685
0.00218024
0.00225898
0.00233356
0.00240442
0.00247194
0.00253642
0.00259816
0.00265739
0.00271432
0.00276915
0.00282202
0.0028731
0.00292251
0.00297036
0.00301676
0.0030618
0.00310556
0.00314813
0.00318957
0.00322994
0.00326931
0.00330771
0.00334521
0.00338185
0.00341766
0.00345268
0.00348695
0.00352049
0.00355335
0.00358554
0.00361709
0.00364802
0.00367836
0.00370812
0.00373732
0.00376599
0.00379413
0.00382177
0.00384891
0.00387556
0.00390175
0.00392749
0.00395277
0.00397762
0.00400204
0.00402604
0.00404963
0.00407282
0.0040956
0.004118
0.00414002
0.00416165
0.00418292
0.00420381
0.00422434
0.00424451
0.00426432
0.00428378
0.00430289
0.00432165
0.00434007
0.00435815
0.00437588
0.00439328
0.00441034
0.00442707
0.00444346
0.00445952
0.00447524
0.00449064
0.0045057
0.00452043
0.00453483
0.00454889
0.00456263
0.00457603
0.0045891
0.00460183
0.00461423
0.00462629
0.00463801
0.00464939
0.00466043
0.00467113
0.00468147
0.00469148
0.00470112
0.00471042
0.00471936
0.00472794
0.00473616
0.00474401
0.00475149
0.0047586
0.00476533
0.00477168
0.00477765
0.00478323
0.00478841
0.00479319
0.00479757
0.00480153
0.00480508
0.00480821
0.00481092
0.00481319
0.00481502
0.0048164
0.00481733
0.0048178
0.00135102
0.00080548
0.000717276
0.000821759
0.000991921
0.00117164
0.00134249
0.00150009
0.00164438
0.00177651
0.00189787
0.00200981
0.00211353
0.00221008
0.00230034
0.00238506
0.00246489
0.00254038
0.00261198
0.0026801
0.00274507
0.0028072
0.00286675
0.00292392
0.00297893
0.00303195
0.00308313
0.0031326
0.00318049
0.00322691
0.00327195
0.00331571
0.00335825
0.00339966
0.00343999
0.00347932
0.00351768
0.00355514
0.00359173
0.0036275
0.00366249
0.00369673
0.00373025
0.00376308
0.00379526
0.0038268
0.00385773
0.00388807
0.00391785
0.00394707
0.00397577
0.00400394
0.00403162
0.00405881
0.00408552
0.00411177
0.00413757
0.00416294
0.00418787
0.00421237
0.00423647
0.00426016
0.00428345
0.00430635
0.00432887
0.004351
0.00437277
0.00439416
0.00441519
0.00443586
0.00445617
0.00447612
0.00449573
0.00451499
0.00453391
0.00455248
0.00457072
0.00458861
0.00460617
0.0046234
0.00464029
0.00465684
0.00467307
0.00468896
0.00470452
0.00471974
0.00473464
0.0047492
0.00476343
0.00477733
0.00479089
0.00480412
0.00481701
0.00482956
0.00484178
0.00485365
0.00486518
0.00487636
0.0048872
0.00489769
0.00490783
0.00491761
0.00492704
0.0049361
0.0049448
0.00495314
0.0049611
0.00496869
0.00497591
0.00498274
0.00498918
0.00499524
0.0050009
0.00500615
0.00501101
0.00501545
0.00501948
0.00502308
0.00502626
0.00502901
0.00503131
0.00503317
0.00503457
0.00503552
0.00503599
0.00153074
0.000906126
0.000814148
0.000938092
0.00112748
0.00132057
0.00150009
0.0016634
0.00181156
0.0019464
0.00206969
0.00218301
0.00228769
0.00238488
0.00247552
0.00256042
0.00264027
0.00271563
0.00278699
0.00285477
0.00291933
0.00298099
0.00304001
0.00309662
0.00315103
0.00320342
0.00325395
0.00330277
0.00335
0.00339575
0.00344012
0.00348321
0.0035251
0.00356585
0.00360554
0.00364424
0.00368198
0.00371883
0.00375483
0.00379003
0.00382446
0.00385815
0.00389115
0.00392347
0.00395516
0.00398622
0.0040167
0.0040466
0.00407596
0.00410478
0.00413308
0.00416089
0.00418821
0.00421507
0.00424146
0.00426741
0.00429292
0.00431801
0.00434269
0.00436695
0.00439082
0.00441429
0.00443738
0.0044601
0.00448244
0.00450441
0.00452602
0.00454727
0.00456817
0.00458872
0.00460892
0.00462878
0.0046483
0.00466748
0.00468633
0.00470484
0.00472302
0.00474087
0.00475839
0.00477558
0.00479244
0.00480897
0.00482518
0.00484106
0.00485662
0.00487184
0.00488674
0.00490131
0.00491555
0.00492947
0.00494305
0.0049563
0.00496921
0.00498179
0.00499403
0.00500594
0.0050175
0.00502872
0.00503959
0.00505012
0.00506029
0.00507011
0.00507958
0.00508868
0.00509742
0.00510579
0.00511379
0.00512142
0.00512867
0.00513553
0.00514201
0.0051481
0.00515379
0.00515908
0.00516396
0.00516842
0.00517247
0.0051761
0.0051793
0.00518206
0.00518438
0.00518625
0.00518766
0.00518861
0.00518909
0.00170155
0.00100219
0.000907586
0.0010493
0.00125489
0.0014585
0.00164438
0.00181156
0.00196214
0.00209849
0.0022227
0.00233652
0.00244139
0.00253853
0.00262892
0.00271341
0.00279271
0.0028674
0.00293801
0.00300496
0.00306863
0.00312934
0.00318736
0.00324295
0.00329632
0.00334764
0.0033971
0.00344483
0.00349097
0.00353564
0.00357893
0.00362095
0.00366177
0.00370148
0.00374014
0.00377781
0.00381456
0.00385043
0.00388547
0.00391973
0.00395324
0.00398604
0.00401816
0.00404963
0.00408049
0.00411076
0.00414045
0.0041696
0.00419822
0.00422634
0.00425396
0.0042811
0.00430779
0.00433402
0.00435983
0.0043852
0.00441016
0.00443472
0.00445889
0.00448266
0.00450606
0.00452909
0.00455175
0.00457405
0.00459599
0.00461759
0.00463884
0.00465975
0.00468032
0.00470056
0.00472046
0.00474004
0.00475929
0.00477822
0.00479682
0.00481511
0.00483307
0.00485071
0.00486804
0.00488505
0.00490174
0.00491811
0.00493417
0.0049499
0.00496533
0.00498043
0.00499521
0.00500967
0.00502381
0.00503763
0.00505113
0.00506429
0.00507713
0.00508964
0.00510182
0.00511367
0.00512518
0.00513635
0.00514718
0.00515766
0.0051678
0.00517759
0.00518702
0.0051961
0.00520481
0.00521316
0.00522115
0.00522876
0.00523599
0.00524284
0.00524931
0.00525539
0.00526107
0.00526635
0.00527122
0.00527568
0.00527973
0.00528335
0.00528655
0.00528931
0.00529162
0.00529349
0.0052949
0.00529585
0.00529633
0.00186271
0.00109289
0.000996419
0.00115428
0.0013737
0.0015858
0.00177651
0.0019464
0.00209849
0.00223564
0.00236019
0.00247404
0.00257871
0.00267544
0.00276527
0.00284907
0.00292756
0.00300135
0.00307097
0.00313685
0.00319939
0.00325892
0.00331573
0.00337006
0.00342215
0.00347218
0.00352032
0.00356673
0.00361155
0.00365489
0.00369686
0.00373756
0.00377708
0.00381549
0.00385287
0.00388928
0.00392478
0.00395943
0.00399326
0.00402634
0.00405869
0.00409035
0.00412136
0.00415175
0.00418155
0.00421078
0.00423946
0.00426763
0.00429529
0.00432247
0.00434919
0.00437545
0.00440128
0.00442669
0.00445169
0.00447629
0.0045005
0.00452433
0.00454779
0.00457089
0.00459363
0.00461602
0.00463807
0.00465978
0.00468116
0.00470221
0.00472294
0.00474334
0.00476343
0.0047832
0.00480266
0.00482181
0.00484065
0.00485918
0.0048774
0.00489533
0.00491294
0.00493026
0.00494727
0.00496397
0.00498038
0.00499648
0.00501227
0.00502776
0.00504295
0.00505782
0.00507239
0.00508665
0.0051006
0.00511424
0.00512756
0.00514056
0.00515325
0.00516561
0.00517765
0.00518937
0.00520075
0.00521181
0.00522253
0.00523291
0.00524295
0.00525265
0.005262
0.005271
0.00527964
0.00528792
0.00529584
0.00530339
0.00531057
0.00531737
0.00532379
0.00532983
0.00533547
0.00534072
0.00534556
0.00534999
0.00535401
0.00535761
0.00536079
0.00536353
0.00536583
0.00536769
0.00536909
0.00537004
0.00537051
0.00201427
0.00117813
0.00108032
0.00125286
0.00148427
0.0017034
0.00189787
0.00206969
0.0022227
0.00236019
0.00248474
0.00259834
0.00270259
0.00279876
0.0028879
0.00297089
0.00304848
0.00312128
0.00318982
0.00325456
0.0033159
0.00337417
0.00342967
0.00348266
0.00353338
0.00358201
0.00362873
0.00367371
0.00371709
0.00375898
0.0037995
0.00383876
0.00387683
0.00391381
0.00394977
0.00398477
0.00401888
0.00405214
0.00408462
0.00411635
0.00414738
0.00417775
0.00420749
0.00423662
0.00426519
0.00429322
0.00432073
0.00434775
0.00437429
0.00440037
0.00442602
0.00445124
0.00447606
0.00450048
0.00452451
0.00454818
0.00457148
0.00459443
0.00461703
0.0046393
0.00466124
0.00468285
0.00470414
0.00472512
0.0047458
0.00476616
0.00478623
0.004806
0.00482547
0.00484465
0.00486353
0.00488213
0.00490044
0.00491846
0.0049362
0.00495365
0.00497081
0.00498769
0.00500428
0.00502059
0.00503661
0.00505234
0.00506778
0.00508293
0.00509779
0.00511236
0.00512663
0.00514061
0.00515429
0.00516767
0.00518074
0.00519351
0.00520598
0.00521813
0.00522997
0.00524149
0.0052527
0.00526358
0.00527414
0.00528436
0.00529426
0.00530382
0.00531304
0.00532191
0.00533044
0.00533862
0.00534643
0.00535389
0.00536098
0.0053677
0.00537405
0.00538001
0.00538559
0.00539077
0.00539556
0.00539995
0.00540392
0.00540749
0.00541063
0.00541334
0.00541562
0.00541746
0.00541884
0.00541978
0.00542025
0.00215673
0.00125817
0.00115941
0.00134536
0.00158728
0.00181234
0.00200981
0.00218301
0.00233652
0.00247404
0.00259834
0.00271153
0.00281523
0.00291075
0.00299915
0.00308132
0.00315799
0.00322979
0.00329727
0.00336088
0.00342102
0.00347804
0.00353224
0.00358389
0.00363322
0.00368044
0.00372573
0.00376925
0.00381115
0.00385156
0.00389059
0.00392834
0.00396492
0.0040004
0.00403487
0.00406839
0.00410102
0.00413282
0.00416385
0.00419414
0.00422376
0.00425272
0.00428108
0.00430886
0.0043361
0.00436281
0.00438903
0.00441478
0.00444008
0.00446495
0.00448941
0.00451347
0.00453715
0.00456045
0.00458341
0.00460601
0.00462829
0.00465023
0.00467186
0.00469317
0.00471419
0.0047349
0.00475532
0.00477546
0.00479531
0.00481488
0.00483418
0.0048532
0.00487195
0.00489043
0.00490864
0.00492658
0.00494426
0.00496167
0.00497882
0.0049957
0.00501232
0.00502867
0.00504476
0.00506058
0.00507613
0.00509141
0.00510641
0.00512115
0.00513561
0.00514979
0.0051637
0.00517732
0.00519067
0.00520372
0.00521649
0.00522896
0.00524114
0.00525303
0.00526461
0.00527589
0.00528686
0.00529752
0.00530787
0.0053179
0.0053276
0.00533698
0.00534603
0.00535475
0.00536312
0.00537115
0.00537884
0.00538617
0.00539314
0.00539975
0.00540599
0.00541186
0.00541735
0.00542245
0.00542717
0.00543149
0.0054354
0.00543891
0.00544201
0.00544468
0.00544693
0.00544874
0.00545011
0.00545103
0.00545149
0.00229079
0.00133339
0.00123399
0.00143224
0.0016835
0.00191364
0.00211353
0.00228769
0.00244139
0.00257871
0.00270259
0.00281523
0.00291831
0.00301314
0.00310078
0.00318213
0.00325791
0.00332876
0.00339522
0.00345775
0.00351675
0.00357258
0.00362554
0.00367589
0.00372389
0.00376974
0.00381363
0.00385572
0.00389617
0.0039351
0.00397264
0.0040089
0.00404398
0.00407795
0.0041109
0.00414291
0.00417404
0.00420434
0.00423388
0.00426269
0.00429084
0.00431835
0.00434527
0.00437163
0.00439746
0.00442279
0.00444765
0.00447205
0.00449603
0.00451961
0.00454279
0.0045656
0.00458805
0.00461016
0.00463194
0.0046534
0.00467454
0.00469539
0.00471595
0.00473622
0.00475621
0.00477594
0.00479539
0.00481459
0.00483352
0.00485221
0.00487064
0.00488882
0.00490676
0.00492445
0.00494189
0.0049591
0.00497606
0.00499278
0.00500925
0.00502549
0.00504148
0.00505722
0.00507272
0.00508798
0.00510298
0.00511774
0.00513224
0.00514649
0.00516048
0.00517422
0.00518769
0.0052009
0.00521385
0.00522652
0.00523892
0.00525104
0.00526289
0.00527445
0.00528573
0.00529671
0.0053074
0.0053178
0.00532789
0.00533768
0.00534715
0.00535631
0.00536515
0.00537367
0.00538186
0.00538972
0.00539724
0.00540441
0.00541124
0.00541771
0.00542383
0.00542958
0.00543496
0.00543997
0.00544459
0.00544883
0.00545267
0.00545611
0.00545915
0.00546177
0.00546398
0.00546575
0.0054671
0.005468
0.00546846
0.00241716
0.00140422
0.00130443
0.00151403
0.00177365
0.00200821
0.00221008
0.00238488
0.00253853
0.00267544
0.00279876
0.00291075
0.00301314
0.00310724
0.00319412
0.00327467
0.0033496
0.00341956
0.00348507
0.00354659
0.00360453
0.00365924
0.00371103
0.00376018
0.00380692
0.00385147
0.00389402
0.00393475
0.0039738
0.00401131
0.00404741
0.00408221
0.00411581
0.0041483
0.00417977
0.00421028
0.00423991
0.00426871
0.00429675
0.00432408
0.00435074
0.00437678
0.00440224
0.00442714
0.00445154
0.00447544
0.00449889
0.00452191
0.00454452
0.00456674
0.0045886
0.0046101
0.00463126
0.00465211
0.00467264
0.00469288
0.00471284
0.00473252
0.00475193
0.00477108
0.00478999
0.00480864
0.00482705
0.00484523
0.00486318
0.00488089
0.00489838
0.00491565
0.0049327
0.00494952
0.00496613
0.00498252
0.00499869
0.00501464
0.00503037
0.00504588
0.00506117
0.00507624
0.00509109
0.00510571
0.00512011
0.00513428
0.00514821
0.00516191
0.00517538
0.0051886
0.00520159
0.00521432
0.00522681
0.00523905
0.00525103
0.00526276
0.00527422
0.00528541
0.00529633
0.00530698
0.00531735
0.00532743
0.00533723
0.00534674
0.00535595
0.00536485
0.00537345
0.00538174
0.00538971
0.00539737
0.00540469
0.00541169
0.00541834
0.00542466
0.00543062
0.00543624
0.00544149
0.00544638
0.00545089
0.00545503
0.00545878
0.00546215
0.00546512
0.00546768
0.00546984
0.00547157
0.00547289
0.00547377
0.00547422
0.00253655
0.0014711
0.00137112
0.00159123
0.0018584
0.00209685
0.00230034
0.00247552
0.00262892
0.00276527
0.0028879
0.00299915
0.00310078
0.00319412
0.00328024
0.00336
0.00343412
0.00350323
0.00356786
0.00362845
0.00368541
0.0037391
0.00378981
0.00383784
0.00388341
0.00392675
0.00396805
0.00400749
0.00404523
0.0040814
0.00411612
0.00414953
0.00418171
0.00421277
0.00424279
0.00427184
0.00430001
0.00432734
0.00435391
0.00437977
0.00440496
0.00442953
0.00445352
0.00447697
0.00449992
0.00452239
0.00454441
0.00456602
0.00458724
0.00460808
0.00462857
0.00464872
0.00466856
0.0046881
0.00470735
0.00472633
0.00474504
0.0047635
0.00478172
0.0047997
0.00481745
0.00483498
0.00485229
0.00486939
0.00488628
0.00490297
0.00491946
0.00493574
0.00495183
0.00496773
0.00498343
0.00499894
0.00501425
0.00502937
0.0050443
0.00505903
0.00507356
0.00508789
0.00510202
0.00511595
0.00512968
0.0051432
0.00515651
0.00516961
0.00518249
0.00519515
0.00520759
0.0052198
0.00523179
0.00524354
0.00525506
0.00526633
0.00527736
0.00528814
0.00529867
0.00530894
0.00531894
0.00532868
0.00533814
0.00534733
0.00535624
0.00536486
0.00537318
0.00538121
0.00538894
0.00539636
0.00540347
0.00541025
0.00541671
0.00542285
0.00542864
0.0054341
0.0054392
0.00544395
0.00544835
0.00545237
0.00545603
0.0054593
0.00546219
0.00546469
0.00546679
0.00546848
0.00546976
0.00547062
0.00547105
0.00264962
0.00153441
0.00143441
0.0016643
0.00193836
0.00218024
0.00238506
0.00256042
0.00271341
0.00284907
0.00297089
0.00308132
0.00318213
0.00327467
0.00336
0.00343898
0.00351232
0.00358063
0.00364442
0.00370416
0.00376022
0.00381296
0.0038627
0.00390969
0.00395419
0.00399642
0.00403657
0.00407482
0.00411132
0.00414623
0.00417966
0.00421175
0.00424259
0.00427228
0.00430092
0.00432857
0.00435533
0.00438124
0.00440638
0.0044308
0.00445455
0.00447767
0.00450023
0.00452224
0.00454375
0.00456479
0.0045854
0.00460559
0.00462541
0.00464486
0.00466397
0.00468277
0.00470126
0.00471947
0.00473741
0.00475509
0.00477253
0.00478973
0.00480671
0.00482348
0.00484003
0.00485639
0.00487256
0.00488853
0.00490432
0.00491993
0.00493536
0.00495062
0.00496571
0.00498062
0.00499536
0.00500994
0.00502434
0.00503857
0.00505263
0.00506652
0.00508024
0.00509378
0.00510715
0.00512033
0.00513334
0.00514615
0.00515879
0.00517123
0.00518347
0.00519552
0.00520737
0.00521902
0.00523045
0.00524167
0.00525268
0.00526346
0.00527401
0.00528434
0.00529443
0.00530428
0.00531388
0.00532323
0.00533233
0.00534117
0.00534974
0.00535804
0.00536606
0.0053738
0.00538126
0.00538842
0.00539528
0.00540183
0.00540808
0.00541401
0.00541961
0.00542489
0.00542983
0.00543443
0.00543868
0.00544258
0.00544612
0.0054493
0.0054521
0.00545452
0.00545655
0.00545819
0.00545944
0.00546027
0.00546069
0.00275696
0.00159451
0.00149463
0.00173367
0.00201402
0.00225898
0.00246489
0.00264027
0.00279271
0.00292756
0.00304848
0.00315799
0.00325791
0.0033496
0.00343412
0.00351232
0.00358489
0.00365243
0.00371544
0.00377437
0.00382961
0.00388149
0.00393032
0.00397638
0.0040199
0.00406111
0.0041002
0.00413735
0.00417272
0.00420645
0.00423868
0.00426954
0.00429912
0.00432752
0.00435485
0.00438117
0.00440658
0.00443113
0.00445489
0.00447792
0.00450028
0.00452201
0.00454316
0.00456376
0.00458387
0.0046035
0.00462271
0.00464151
0.00465993
0.004678
0.00469574
0.00471317
0.00473031
0.00474718
0.00476379
0.00478016
0.00479631
0.00481224
0.00482796
0.00484348
0.00485882
0.00487397
0.00488896
0.00490377
0.00491842
0.00493292
0.00494725
0.00496144
0.00497548
0.00498936
0.0050031
0.0050167
0.00503014
0.00504344
0.00505659
0.0050696
0.00508245
0.00509515
0.0051077
0.0051201
0.00513233
0.0051444
0.00515631
0.00516805
0.00517962
0.00519101
0.00520222
0.00521325
0.00522409
0.00523474
0.00524519
0.00525544
0.00526548
0.00527531
0.00528493
0.00529432
0.00530349
0.00531242
0.00532112
0.00532957
0.00533777
0.00534572
0.00535341
0.00536084
0.00536799
0.00537486
0.00538145
0.00538776
0.00539376
0.00539946
0.00540486
0.00540994
0.0054147
0.00541914
0.00542324
0.005427
0.00543041
0.00543347
0.00543618
0.00543851
0.00544048
0.00544206
0.00544326
0.00544407
0.00544447
0.00285909
0.0016517
0.00155207
0.0017997
0.00208585
0.00233356
0.00254038
0.00271563
0.0028674
0.00300135
0.00312128
0.00322979
0.00332876
0.00341956
0.00350323
0.00358063
0.00365243
0.00371921
0.00378148
0.00383965
0.00389411
0.0039452
0.00399321
0.00403841
0.00408103
0.00412131
0.00415943
0.00419557
0.0042299
0.00426256
0.00429368
0.00432338
0.00435179
0.00437899
0.00440509
0.00443016
0.00445429
0.00447755
0.0045
0.00452171
0.00454272
0.0045631
0.00458289
0.00460214
0.00462087
0.00463914
0.00465697
0.0046744
0.00469146
0.00470816
0.00472454
0.00474062
0.00475642
0.00477195
0.00478724
0.0048023
0.00481715
0.00483179
0.00484624
0.00486051
0.0048746
0.00488854
0.00490232
0.00491595
0.00492944
0.00494278
0.004956
0.00496908
0.00498203
0.00499486
0.00500756
0.00502013
0.00503258
0.00504491
0.00505712
0.00506919
0.00508114
0.00509297
0.00510466
0.00511621
0.00512764
0.00513892
0.00515006
0.00516106
0.0051719
0.00518259
0.00519313
0.0052035
0.00521371
0.00522374
0.0052336
0.00524328
0.00525277
0.00526208
0.00527118
0.00528008
0.00528878
0.00529726
0.00530552
0.00531356
0.00532137
0.00532894
0.00533627
0.00534335
0.00535018
0.00535674
0.00536304
0.00536906
0.00537481
0.00538027
0.00538543
0.0053903
0.00539486
0.00539912
0.00540305
0.00540666
0.00540993
0.00541287
0.00541547
0.00541771
0.0054196
0.00542112
0.00542227
0.00542305
0.00542344
0.00295647
0.00170626
0.001607
0.0018627
0.00215421
0.00240442
0.00261198
0.00278699
0.00293801
0.00307097
0.00318982
0.00329727
0.00339522
0.00348507
0.00356786
0.00364442
0.00371544
0.00378148
0.00384301
0.00390046
0.00395419
0.00400454
0.00405178
0.00409619
0.004138
0.00417743
0.00421467
0.00424989
0.00428326
0.00431493
0.00434502
0.00437367
0.00440099
0.00442707
0.00445202
0.00447592
0.00449885
0.00452089
0.0045421
0.00456255
0.00458229
0.00460138
0.00461987
0.00463781
0.00465522
0.00467216
0.00468867
0.00470476
0.00472048
0.00473585
0.00475089
0.00476564
0.00478011
0.00479433
0.0048083
0.00482206
0.00483561
0.00484897
0.00486214
0.00487515
0.004888
0.00490071
0.00491327
0.0049257
0.00493801
0.00495019
0.00496226
0.00497421
0.00498606
0.00499779
0.00500943
0.00502095
0.00503238
0.0050437
0.00505493
0.00506604
0.00507705
0.00508796
0.00509876
0.00510944
0.00512002
0.00513048
0.00514081
0.00515103
0.00516111
0.00517107
0.00518089
0.00519057
0.00520011
0.00520949
0.00521873
0.0052278
0.00523671
0.00524544
0.005254
0.00526238
0.00527058
0.00527858
0.00528638
0.00529397
0.00530135
0.00530852
0.00531546
0.00532217
0.00532864
0.00533487
0.00534086
0.00534658
0.00535205
0.00535724
0.00536216
0.0053668
0.00537115
0.0053752
0.00537895
0.00538239
0.00538552
0.00538833
0.00539081
0.00539295
0.00539476
0.00539621
0.00539731
0.00539805
0.00539843
0.0030495
0.00175842
0.00165962
0.00192296
0.00221946
0.00247194
0.0026801
0.00285477
0.00300496
0.00313685
0.00325456
0.00336088
0.00345775
0.00354659
0.00362845
0.00370416
0.00377437
0.00383965
0.00390046
0.0039572
0.00401024
0.00405988
0.00410642
0.0041501
0.00419116
0.0042298
0.00426623
0.00430061
0.00433311
0.00436387
0.00439303
0.0044207
0.00444701
0.00447206
0.00449594
0.00451875
0.00454056
0.00456145
0.0045815
0.00460076
0.0046193
0.00463716
0.00465441
0.00467109
0.00468724
0.00470291
0.00471813
0.00473293
0.00474736
0.00476143
0.00477517
0.00478862
0.00480179
0.00481471
0.00482739
0.00483986
0.00485213
0.00486421
0.00487612
0.00488788
0.00489948
0.00491095
0.0049223
0.00493352
0.00494464
0.00495564
0.00496655
0.00497736
0.00498808
0.00499871
0.00500925
0.00501971
0.00503009
0.00504038
0.0050506
0.00506072
0.00507077
0.00508073
0.0050906
0.00510039
0.00511008
0.00511968
0.00512918
0.00513858
0.00514787
0.00515706
0.00516613
0.00517509
0.00518392
0.00519262
0.0052012
0.00520963
0.00521792
0.00522606
0.00523405
0.00524187
0.00524953
0.00525702
0.00526433
0.00527145
0.00527838
0.00528511
0.00529164
0.00529795
0.00530405
0.00530993
0.00531557
0.00532098
0.00532614
0.00533105
0.00533571
0.0053401
0.00534422
0.00534806
0.00535161
0.00535488
0.00535785
0.00536051
0.00536287
0.0053649
0.00536662
0.005368
0.00536904
0.00536975
0.0053701
0.00313855
0.00180838
0.00171015
0.00198071
0.00228187
0.00253642
0.00274507
0.00291933
0.00306863
0.00319939
0.0033159
0.00342102
0.00351675
0.00360453
0.00368541
0.00376022
0.00382961
0.00389411
0.00395419
0.00401024
0.0040626
0.00411157
0.00415743
0.00420043
0.00424079
0.00427872
0.0043144
0.00434801
0.00437971
0.00440964
0.00443793
0.00446471
0.0044901
0.00451419
0.00453709
0.00455888
0.00457965
0.00459948
0.00461843
0.00463657
0.00465397
0.00467068
0.00468675
0.00470224
0.00471719
0.00473163
0.00474562
0.00475918
0.00477236
0.00478517
0.00479766
0.00480984
0.00482175
0.0048334
0.00484481
0.00485601
0.00486702
0.00487785
0.00488851
0.00489902
0.00490939
0.00491964
0.00492976
0.00493978
0.0049497
0.00495953
0.00496927
0.00497893
0.00498851
0.00499802
0.00500746
0.00501684
0.00502615
0.00503539
0.00504457
0.00505369
0.00506275
0.00507174
0.00508066
0.00508951
0.0050983
0.00510701
0.00511565
0.0051242
0.00513268
0.00514106
0.00514936
0.00515756
0.00516565
0.00517365
0.00518153
0.00518929
0.00519694
0.00520445
0.00521184
0.00521908
0.00522618
0.00523312
0.00523991
0.00524653
0.00525298
0.00525926
0.00526535
0.00527125
0.00527695
0.00528245
0.00528773
0.0052928
0.00529764
0.00530225
0.00530662
0.00531075
0.00531462
0.00531823
0.00532158
0.00532466
0.00532746
0.00532997
0.00533219
0.00533411
0.00533573
0.00533703
0.00533802
0.00533869
0.00533902
0.00322393
0.00185634
0.00175875
0.00203617
0.0023417
0.00259816
0.0028072
0.00298099
0.00312934
0.00325892
0.00337417
0.00347804
0.00357258
0.00365924
0.0037391
0.00381296
0.00388149
0.0039452
0.00400454
0.00405988
0.00411157
0.00415988
0.0042051
0.00424745
0.00428716
0.00432442
0.00435942
0.00439232
0.00442328
0.00445245
0.00447995
0.00450591
0.00453045
0.00455366
0.00457565
0.0045965
0.0046163
0.00463513
0.00465307
0.00467017
0.0046865
0.00470212
0.00471708
0.00473144
0.00474524