/*--------------------------------*- C++ -*----------------------------------*\
| =========                 |                                                 |
| \\      /  F ield         | OpenFOAM: The Open Source CFD Toolbox           |
|  \\    /   O peration     | Version:  4.x                                   |
|   \\  /    A nd           | Web:      www.OpenFOAM.org                      |
|    \\/     M anipulation  |                                                 |
\*---------------------------------------------------------------------------*/
FoamFile
{
    version     2.0;
    format      ascii;
    class       volScalarField;
    location    "98.96";
    object      nut;
}
// * * * * * * * * * * * * * * * * * * * * * * * * * * * * * * * * * * * * * //

dimensions      [0 2 -1 0 0 0 0];

internalField   nonuniform List<scalar> 
15625
(
1.30932e-05
1.40172e-05
1.56392e-05
1.75382e-05
1.94469e-05
2.12413e-05
2.28782e-05
2.43524e-05
2.56752e-05
2.68635e-05
2.7935e-05
2.89061e-05
2.97909e-05
3.06015e-05
3.13482e-05
3.20393e-05
3.26818e-05
3.32816e-05
3.38437e-05
3.4372e-05
3.48703e-05
3.53414e-05
3.5788e-05
3.62122e-05
3.66162e-05
3.70015e-05
3.73696e-05
3.77219e-05
3.80596e-05
3.83837e-05
3.86952e-05
3.89949e-05
3.92836e-05
3.95619e-05
3.98306e-05
4.00901e-05
4.0341e-05
4.05838e-05
4.0819e-05
4.10468e-05
4.12677e-05
4.14821e-05
4.16902e-05
4.18923e-05
4.20888e-05
4.22799e-05
4.24657e-05
4.26466e-05
4.28227e-05
4.29943e-05
4.31614e-05
4.33244e-05
4.34832e-05
4.36382e-05
4.37893e-05
4.39368e-05
4.40808e-05
4.42213e-05
4.43586e-05
4.44926e-05
4.46235e-05
4.47515e-05
4.48764e-05
4.49986e-05
4.51179e-05
4.52346e-05
4.53486e-05
4.546e-05
4.5569e-05
4.56755e-05
4.57796e-05
4.58813e-05
4.59808e-05
4.6078e-05
4.6173e-05
4.62658e-05
4.63565e-05
4.64451e-05
4.65317e-05
4.66162e-05
4.66987e-05
4.67793e-05
4.68579e-05
4.69346e-05
4.70094e-05
4.70824e-05
4.71534e-05
4.72227e-05
4.72901e-05
4.73557e-05
4.74196e-05
4.74816e-05
4.75419e-05
4.76004e-05
4.76572e-05
4.77122e-05
4.77655e-05
4.78171e-05
4.78669e-05
4.7915e-05
4.79614e-05
4.80061e-05
4.8049e-05
4.80902e-05
4.81297e-05
4.81675e-05
4.82035e-05
4.82377e-05
4.82702e-05
4.83009e-05
4.83298e-05
4.8357e-05
4.83823e-05
4.84058e-05
4.84275e-05
4.84474e-05
4.84653e-05
4.84814e-05
4.84955e-05
4.85077e-05
4.8518e-05
4.85262e-05
4.85325e-05
4.85367e-05
4.85388e-05
1.40172e-05
1.4183e-05
1.51288e-05
1.64221e-05
1.7981e-05
1.96332e-05
2.12448e-05
2.27491e-05
2.41245e-05
2.53722e-05
2.65033e-05
2.75317e-05
2.84711e-05
2.93339e-05
3.01307e-05
3.08703e-05
3.15602e-05
3.22066e-05
3.28147e-05
3.33887e-05
3.39325e-05
3.4449e-05
3.49411e-05
3.54109e-05
3.58604e-05
3.62915e-05
3.67055e-05
3.7104e-05
3.74879e-05
3.78585e-05
3.82166e-05
3.8563e-05
3.88986e-05
3.92239e-05
3.95397e-05
3.98465e-05
4.01447e-05
4.04349e-05
4.07175e-05
4.09928e-05
4.12612e-05
4.15231e-05
4.17787e-05
4.20284e-05
4.22723e-05
4.25107e-05
4.27439e-05
4.2972e-05
4.31953e-05
4.34138e-05
4.36278e-05
4.38375e-05
4.40429e-05
4.42442e-05
4.44415e-05
4.4635e-05
4.48247e-05
4.50108e-05
4.51933e-05
4.53723e-05
4.5548e-05
4.57203e-05
4.58895e-05
4.60554e-05
4.62183e-05
4.63781e-05
4.65349e-05
4.66888e-05
4.68398e-05
4.6988e-05
4.71334e-05
4.7276e-05
4.74159e-05
4.75531e-05
4.76876e-05
4.78195e-05
4.79489e-05
4.80756e-05
4.81998e-05
4.83214e-05
4.84406e-05
4.85572e-05
4.86714e-05
4.87831e-05
4.88923e-05
4.89991e-05
4.91034e-05
4.92053e-05
4.93048e-05
4.94018e-05
4.94965e-05
4.95887e-05
4.96784e-05
4.97658e-05
4.98507e-05
4.99331e-05
5.00131e-05
5.00907e-05
5.01658e-05
5.02385e-05
5.03086e-05
5.03763e-05
5.04414e-05
5.0504e-05
5.05641e-05
5.06216e-05
5.06765e-05
5.07288e-05
5.07785e-05
5.08255e-05
5.08699e-05
5.09116e-05
5.09505e-05
5.09866e-05
5.102e-05
5.10505e-05
5.10782e-05
5.1103e-05
5.11248e-05
5.11436e-05
5.11594e-05
5.11722e-05
5.11818e-05
5.11883e-05
5.11916e-05
1.56392e-05
1.51288e-05
1.75491e-05
2.10101e-05
2.46933e-05
2.83667e-05
3.18806e-05
3.51413e-05
3.81152e-05
4.08075e-05
4.32426e-05
4.5451e-05
4.74629e-05
4.93054e-05
5.10021e-05
5.25728e-05
5.40341e-05
5.53999e-05
5.66818e-05
5.78896e-05
5.90316e-05
6.01148e-05
6.11452e-05
6.2128e-05
6.30676e-05
6.3968e-05
6.48325e-05
6.56641e-05
6.64655e-05
6.7239e-05
6.79867e-05
6.87104e-05
6.94118e-05
7.00923e-05
7.07533e-05
7.1396e-05
7.20216e-05
7.26309e-05
7.32249e-05
7.38044e-05
7.43702e-05
7.49229e-05
7.54633e-05
7.59917e-05
7.65089e-05
7.70152e-05
7.75111e-05
7.79971e-05
7.84734e-05
7.89405e-05
7.93987e-05
7.98483e-05
8.02896e-05
8.07227e-05
8.11481e-05
8.15658e-05
8.19761e-05
8.23791e-05
8.27751e-05
8.31643e-05
8.35467e-05
8.39225e-05
8.42919e-05
8.46549e-05
8.50117e-05
8.53623e-05
8.5707e-05
8.60457e-05
8.63785e-05
8.67056e-05
8.70269e-05
8.73426e-05
8.76527e-05
8.79572e-05
8.82563e-05
8.85499e-05
8.8838e-05
8.91208e-05
8.93983e-05
8.96703e-05
8.99371e-05
9.01986e-05
9.04548e-05
9.07057e-05
9.09514e-05
9.11918e-05
9.14269e-05
9.16568e-05
9.18814e-05
9.21007e-05
9.23148e-05
9.25235e-05
9.27269e-05
9.2925e-05
9.31177e-05
9.3305e-05
9.34869e-05
9.36634e-05
9.38343e-05
9.39998e-05
9.41597e-05
9.4314e-05
9.44626e-05
9.46056e-05
9.47429e-05
9.48743e-05
9.49999e-05
9.51196e-05
9.52334e-05
9.53411e-05
9.54427e-05
9.55382e-05
9.56274e-05
9.57103e-05
9.57868e-05
9.58569e-05
9.59204e-05
9.59773e-05
9.60274e-05
9.60706e-05
9.6107e-05
9.61363e-05
9.61584e-05
9.61733e-05
9.61808e-05
1.75382e-05
1.64221e-05
2.10101e-05
2.97101e-05
3.97184e-05
4.93338e-05
5.80325e-05
6.57363e-05
7.25089e-05
7.84599e-05
8.37063e-05
8.83567e-05
9.25051e-05
9.62305e-05
9.95982e-05
0.000102662
0.000105465
0.000108044
0.000110429
0.000112645
0.000114713
0.00011665
0.000118472
0.00012019
0.000121817
0.000123361
0.000124831
0.000126233
0.000127574
0.00012886
0.000130095
0.000131283
0.000132429
0.000133535
0.000134604
0.00013564
0.000136644
0.000137619
0.000138567
0.000139489
0.000140387
0.000141263
0.000142117
0.000142951
0.000143766
0.000144563
0.000145343
0.000146106
0.000146854
0.000147587
0.000148306
0.000149011
0.000149703
0.000150382
0.000151049
0.000151704
0.000152347
0.000152979
0.000153601
0.000154212
0.000154812
0.000155402
0.000155983
0.000156554
0.000157115
0.000157667
0.00015821
0.000158744
0.00015927
0.000159786
0.000160294
0.000160793
0.000161283
0.000161765
0.000162239
0.000162705
0.000163162
0.000163611
0.000164052
0.000164484
0.000164909
0.000165325
0.000165734
0.000166134
0.000166526
0.00016691
0.000167286
0.000167653
0.000168012
0.000168364
0.000168706
0.000169041
0.000169367
0.000169685
0.000169995
0.000170296
0.000170588
0.000170872
0.000171147
0.000171413
0.000171671
0.000171919
0.000172159
0.00017239
0.000172611
0.000172823
0.000173026
0.000173219
0.000173403
0.000173577
0.000173741
0.000173896
0.00017404
0.000174174
0.000174298
0.000174412
0.000174514
0.000174606
0.000174688
0.000174758
0.000174817
0.000174864
0.0001749
0.000174924
0.000174936
1.94469e-05
1.7981e-05
2.46933e-05
3.97184e-05
5.90266e-05
7.81032e-05
9.50806e-05
0.000109693
0.000122178
0.000132865
0.000142063
0.000150036
0.000156998
0.000163122
0.000168548
0.000173388
0.000177734
0.000181659
0.000185224
0.000188479
0.000191467
0.000194221
0.000196772
0.000199144
0.000201359
0.000203434
0.000205385
0.000207226
0.000208968
0.000210621
0.000212195
0.000213697
0.000215133
0.00021651
0.000217834
0.000219108
0.000220337
0.000221525
0.000222676
0.000223791
0.000224874
0.000225927
0.000226952
0.000227951
0.000228926
0.000229878
0.00023081
0.000231721
0.000232613
0.000233488
0.000234346
0.000235188
0.000236014
0.000236826
0.000237624
0.000238409
0.000239181
0.00023994
0.000240687
0.000241423
0.000242147
0.000242861
0.000243563
0.000244255
0.000244937
0.000245609
0.00024627
0.000246922
0.000247564
0.000248197
0.00024882
0.000249434
0.000250038
0.000250633
0.000251219
0.000251795
0.000252362
0.00025292
0.000253469
0.000254008
0.000254538
0.000255059
0.000255571
0.000256073
0.000256565
0.000257049
0.000257522
0.000257986
0.00025844
0.000258885
0.000259319
0.000259744
0.000260159
0.000260563
0.000260957
0.000261341
0.000261714
0.000262077
0.000262429
0.00026277
0.0002631
0.000263419
0.000263727
0.000264023
0.000264308
0.000264582
0.000264843
0.000265092
0.000265329
0.000265554
0.000265766
0.000265966
0.000266153
0.000266326
0.000266487
0.000266634
0.000266767
0.000266886
0.000266991
0.000267082
0.000267159
0.00026722
0.000267267
0.000267298
0.000267314
2.12413e-05
1.96332e-05
2.83667e-05
4.93338e-05
7.81032e-05
0.000107576
0.000134125
0.000156965
0.000176363
0.00019283
0.000206867
0.000218905
0.000229294
0.000238318
0.000246208
0.000253146
0.000259283
0.000264742
0.000269623
0.000274008
0.000277968
0.00028156
0.000284833
0.000287827
0.000290579
0.000293117
0.000295468
0.000297654
0.000299693
0.000301602
0.000303397
0.000305088
0.000306688
0.000308206
0.00030965
0.000311028
0.000312346
0.000313611
0.000314827
0.000316
0.000317132
0.000318228
0.000319292
0.000320325
0.00032133
0.000322311
0.000323268
0.000324203
0.000325119
0.000326017
0.000326897
0.000327762
0.000328611
0.000329447
0.00033027
0.00033108
0.000331878
0.000332665
0.000333442
0.000334208
0.000334964
0.000335711
0.000336448
0.000337176
0.000337896
0.000338606
0.000339308
0.000340002
0.000340688
0.000341365
0.000342033
0.000342694
0.000343346
0.00034399
0.000344626
0.000345253
0.000345873
0.000346483
0.000347085
0.000347679
0.000348263
0.000348839
0.000349406
0.000349964
0.000350512
0.000351051
0.000351581
0.000352101
0.000352611
0.000353112
0.000353602
0.000354082
0.000354551
0.00035501
0.000355457
0.000355894
0.00035632
0.000356734
0.000357137
0.000357527
0.000357906
0.000358272
0.000358626
0.000358968
0.000359296
0.000359611
0.000359913
0.000360202
0.000360476
0.000360737
0.000360983
0.000361215
0.000361432
0.000361634
0.00036182
0.000361991
0.000362146
0.000362285
0.000362408
0.000362514
0.000362603
0.000362675
0.000362729
0.000362766
0.000362784
2.28782e-05
2.12448e-05
3.18806e-05
5.80325e-05
9.50806e-05
0.000134125
0.000170039
0.000201365
0.000228197
0.000251082
0.000270631
0.00028739
0.000301824
0.000314315
0.000325176
0.000334663
0.000342986
0.000350321
0.00035681
0.000362574
0.000367713
0.000372313
0.000376445
0.000380169
0.000383539
0.000386599
0.000389387
0.000391936
0.000394275
0.000396429
0.00039842
0.000400266
0.000401985
0.00040359
0.000405095
0.000406511
0.000407848
0.000409114
0.000410317
0.000411464
0.000412561
0.000413614
0.000414627
0.000415605
0.00041655
0.000417468
0.00041836
0.000419229
0.000420078
0.000420908
0.000421722
0.000422521
0.000423307
0.00042408
0.000424842
0.000425593
0.000426336
0.00042707
0.000427796
0.000428514
0.000429226
0.00042993
0.000430629
0.000431322
0.000432009
0.00043269
0.000433366
0.000434036
0.000434701
0.000435361
0.000436015
0.000436664
0.000437307
0.000437944
0.000438576
0.000439202
0.000439822
0.000440436
0.000441043
0.000441644
0.000442238
0.000442825
0.000443405
0.000443977
0.000444542
0.000445099
0.000445647
0.000446188
0.000446719
0.000447242
0.000447755
0.000448259
0.000448753
0.000449238
0.000449711
0.000450175
0.000450627
0.000451068
0.000451497
0.000451915
0.000452321
0.000452714
0.000453095
0.000453462
0.000453816
0.000454157
0.000454483
0.000454796
0.000455094
0.000455376
0.000455644
0.000455896
0.000456132
0.000456353
0.000456556
0.000456743
0.000456912
0.000457065
0.000457199
0.000457315
0.000457412
0.000457491
0.000457551
0.000457591
0.000457611
2.43524e-05
2.27491e-05
3.51413e-05
6.57363e-05
0.000109693
0.000156965
0.000201365
0.000240792
0.000275043
0.000304579
0.000330016
0.000351956
0.000370928
0.000387386
0.000401707
0.000414209
0.000425155
0.000434768
0.000443234
0.000450708
0.000457325
0.000463198
0.000468423
0.000473082
0.000477247
0.00048098
0.000484333
0.000487352
0.000490079
0.000492547
0.000494788
0.000496828
0.000498692
0.000500398
0.000501967
0.000503414
0.000504753
0.000505998
0.000507158
0.000508244
0.000509266
0.00051023
0.000511143
0.000512012
0.000512842
0.000513638
0.000514404
0.000515145
0.000515862
0.00051656
0.000517242
0.000517908
0.000518562
0.000519205
0.000519839
0.000520465
0.000521085
0.000521699
0.000522308
0.000522914
0.000523516
0.000524115
0.000524712
0.000525307
0.000525901
0.000526493
0.000527083
0.000527672
0.00052826
0.000528847
0.000529432
0.000530016
0.000530598
0.000531178
0.000531756
0.000532333
0.000532906
0.000533477
0.000534046
0.00053461
0.000535172
0.000535729
0.000536282
0.00053683
0.000537374
0.000537912
0.000538445
0.000538971
0.000539491
0.000540004
0.00054051
0.000541009
0.000541499
0.000541981
0.000542454
0.000542918
0.000543372
0.000543817
0.000544251
0.000544674
0.000545085
0.000545486
0.000545874
0.000546249
0.000546612
0.000546962
0.000547297
0.000547619
0.000547926
0.000548218
0.000548495
0.000548757
0.000549002
0.00054923
0.000549442
0.000549636
0.000549813
0.000549971
0.000550111
0.000550233
0.000550335
0.000550417
0.000550479
0.000550521
0.000550542
2.56752e-05
2.41245e-05
3.81152e-05
7.25089e-05
0.000122178
0.000176363
0.000228197
0.000275043
0.000316371
0.000352473
0.000383902
0.000411252
0.000435075
0.000455861
0.000474031
0.000489945
0.000503909
0.000516184
0.000526993
0.000536526
0.000544945
0.000552391
0.000558985
0.000564832
0.000570021
0.000574633
0.000578735
0.000582389
0.000585647
0.000588556
0.000591155
0.000593482
0.000595567
0.00059744
0.000599125
0.000600643
0.000602015
0.000603257
0.000604386
0.000605415
0.000606356
0.00060722
0.000608017
0.000608755
0.000609442
0.000610086
0.000610691
0.000611264
0.00061181
0.000612331
0.000612834
0.00061332
0.000613793
0.000614255
0.000614709
0.000615156
0.000615599
0.000616039
0.000616477
0.000616915
0.000617353
0.000617792
0.000618232
0.000618676
0.000619121
0.00061957
0.000620023
0.000620478
0.000620938
0.0006214
0.000621867
0.000622336
0.000622809
0.000623285
0.000623763
0.000624244
0.000624727
0.000625212
0.000625698
0.000626186
0.000626673
0.000627161
0.000627649
0.000628136
0.000628622
0.000629106
0.000629588
0.000630068
0.000630544
0.000631016
0.000631484
0.000631948
0.000632406
0.000632859
0.000633305
0.000633744
0.000634176
0.0006346
0.000635015
0.000635422
0.000635819
0.000636206
0.000636583
0.000636948
0.000637302
0.000637644
0.000637973
0.00063829
0.000638592
0.000638881
0.000639154
0.000639413
0.000639656
0.000639884
0.000640094
0.000640288
0.000640464
0.000640623
0.000640763
0.000640884
0.000640986
0.000641068
0.000641131
0.000641173
0.000641194
2.68635e-05
2.53722e-05
4.08075e-05
7.84599e-05
0.000132865
0.00019283
0.000251082
0.000304579
0.000352473
0.000394858
0.000432177
0.000464974
0.000493787
0.000519114
0.000541396
0.000561018
0.000578314
0.000593575
0.000607051
0.00061896
0.000629491
0.000638807
0.000647052
0.00065435
0.000660812
0.000666533
0.000671597
0.00067608
0.000680047
0.000683557
0.00068666
0.000689403
0.000691826
0.000693966
0.000695854
0.00069752
0.000698989
0.000700284
0.000701426
0.000702432
0.000703319
0.000704102
0.000704793
0.000705406
0.000705949
0.000706433
0.000706866
0.000707255
0.000707607
0.000707928
0.000708224
0.000708498
0.000708757
0.000709002
0.000709237
0.000709466
0.000709691
0.000709914
0.000710137
0.000710362
0.00071059
0.000710822
0.00071106
0.000711304
0.000711555
0.000711814
0.000712081
0.000712357
0.00071264
0.000712933
0.000713234
0.000713544
0.000713863
0.000714189
0.000714524
0.000714867
0.000715217
0.000715574
0.000715937
0.000716307
0.000716682
0.000717063
0.000717448
0.000717837
0.000718229
0.000718624
0.000719022
0.000719421
0.000719821
0.000720222
0.000720622
0.000721021
0.000721419
0.000721814
0.000722207
0.000722596
0.00072298
0.00072336
0.000723734
0.000724102
0.000724464
0.000724817
0.000725163
0.0007255
0.000725827
0.000726144
0.000726451
0.000726747
0.00072703
0.000727301
0.00072756
0.000727804
0.000728034
0.00072825
0.00072845
0.000728635
0.000728803
0.000728954
0.000729088
0.000729204
0.000729302
0.000729381
0.000729441
0.000729481
0.000729501
2.7935e-05
2.65033e-05
4.32426e-05
8.37063e-05
0.000142063
0.000206867
0.000270631
0.000330016
0.000383902
0.000432177
0.000475152
0.000513293
0.000547099
0.000577051
0.00060359
0.000627111
0.000647965
0.000666459
0.000682864
0.000697418
0.000710331
0.000721785
0.000731943
0.000740948
0.000748926
0.000755988
0.000762235
0.000767753
0.000772622
0.000776912
0.000780685
0.000783997
0.000786897
0.000789431
0.000791638
0.000793554
0.000795211
0.000796639
0.000797863
0.000798908
0.000799793
0.000800538
0.00080116
0.000801674
0.000802095
0.000802434
0.000802702
0.000802911
0.000803068
0.000803182
0.00080326
0.000803308
0.000803333
0.00080334
0.000803333
0.000803316
0.000803293
0.000803268
0.000803242
0.000803219
0.000803201
0.000803189
0.000803185
0.000803191
0.000803207
0.000803235
0.000803276
0.000803329
0.000803396
0.000803476
0.000803571
0.000803679
0.000803802
0.000803938
0.000804088
0.000804252
0.000804429
0.000804618
0.00080482
0.000805033
0.000805258
0.000805494
0.00080574
0.000805995
0.000806259
0.000806531
0.000806811
0.000807097
0.00080739
0.000807687
0.000807989
0.000808295
0.000808603
0.000808914
0.000809226
0.000809539
0.000809851
0.000810163
0.000810472
0.000810779
0.000811083
0.000811383
0.000811677
0.000811966
0.000812249
0.000812525
0.000812792
0.000813052
0.000813302
0.000813542
0.000813771
0.000813989
0.000814195
0.000814388
0.000814569
0.000814735
0.000814887
0.000815024
0.000815146
0.000815251
0.00081534
0.000815412
0.000815467
0.000815504
0.000815522
2.89061e-05
2.75317e-05
4.5451e-05
8.83567e-05
0.000150036
0.000218905
0.00028739
0.000351956
0.000411252
0.000464974
0.000513293
0.000556582
0.000595282
0.000629842
0.000660687
0.000688208
0.00071276
0.00073466
0.000754189
0.000771601
0.000787117
0.000800938
0.00081324
0.00082418
0.000833899
0.000842523
0.000850164
0.000856923
0.000862889
0.000868145
0.000872761
0.000876806
0.000880336
0.000883405
0.000886061
0.000888348
0.000890304
0.000891965
0.000893363
0.000894526
0.000895482
0.000896253
0.00089686
0.000897324
0.000897662
0.000897889
0.000898021
0.000898069
0.000898047
0.000897963
0.000897829
0.000897652
0.00089744
0.000897201
0.00089694
0.000896663
0.000896375
0.00089608
0.000895783
0.000895487
0.000895195
0.00089491
0.000894635
0.00089437
0.000894118
0.000893881
0.00089366
0.000893455
0.000893268
0.0008931
0.00089295
0.00089282
0.000892708
0.000892616
0.000892544
0.000892491
0.000892457
0.000892442
0.000892445
0.000892466
0.000892504
0.000892559
0.00089263
0.000892717
0.000892819
0.000892935
0.000893063
0.000893205
0.000893358
0.000893522
0.000893696
0.000893879
0.00089407
0.000894268
0.000894473
0.000894683
0.000894898
0.000895117
0.000895338
0.000895561
0.000895786
0.00089601
0.000896234
0.000896456
0.000896675
0.000896892
0.000897104
0.00089731
0.000897512
0.000897706
0.000897893
0.000898072
0.000898242
0.000898403
0.000898553
0.000898692
0.00089882
0.000898935
0.000899038
0.000899127
0.000899203
0.000899264
0.000899311
0.000899342
0.000899358
2.97909e-05
2.84711e-05
4.74629e-05
9.25051e-05
0.000156998
0.000229294
0.000301824
0.000370928
0.000435075
0.000493787
0.000547099
0.000595282
0.00063871
0.000677786
0.000712909
0.000744457
0.000772777
0.000798187
0.000820974
0.000841398
0.00085969
0.000876061
0.000890698
0.00090377
0.00091543
0.000925814
0.000935046
0.000943237
0.000950488
0.00095689
0.000962524
0.000967467
0.000971784
0.000975538
0.000978784
0.000981572
0.000983949
0.000985957
0.000987632
0.000989011
0.000990124
0.000990999
0.000991664
0.000992141
0.000992453
0.000992618
0.000992656
0.000992581
0.000992409
0.000992153
0.000991826
0.000991437
0.000990999
0.000990518
0.000990004
0.000989465
0.000988905
0.000988333
0.000987752
0.000987168
0.000986585
0.000986007
0.000985437
0.000984878
0.000984332
0.000983803
0.000983291
0.000982799
0.000982327
0.000981878
0.000981451
0.000981049
0.00098067
0.000980316
0.000979987
0.000979683
0.000979403
0.000979149
0.000978918
0.000978712
0.00097853
0.00097837
0.000978233
0.000978119
0.000978025
0.000977951
0.000977898
0.000977863
0.000977846
0.000977846
0.000977862
0.000977893
0.000977939
0.000977998
0.000978068
0.00097815
0.000978243
0.000978344
0.000978454
0.00097857
0.000978693
0.000978821
0.000978953
0.000979088
0.000979226
0.000979365
0.000979504
0.000979642
0.000979779
0.000979913
0.000980044
0.000980171
0.000980293
0.00098041
0.00098052
0.000980622
0.000980717
0.000980803
0.000980881
0.000980948
0.000981005
0.000981052
0.000981088
0.000981111
0.000981124
3.06015e-05
2.93339e-05
4.93054e-05
9.62305e-05
0.000163122
0.000238318
0.000314315
0.000387386
0.000455861
0.000519114
0.000577051
0.000629842
0.000677786
0.000721235
0.000760553
0.000796094
0.000828192
0.00085716
0.000883284
0.000906823
0.000928016
0.000947077
0.000964202
0.000979569
0.000993338
0.00100565
0.00101665
0.00102645
0.00103516
0.00104288
0.00104969
0.00105569
0.00106095
0.00106554
0.00106952
0.00107295
0.00107587
0.00107835
0.00108041
0.00108211
0.00108348
0.00108455
0.00108536
0.00108592
0.00108628
0.00108645
0.00108644
0.0010863
0.00108602
0.00108563
0.00108514
0.00108457
0.00108392
0.00108322
0.00108247
0.00108167
0.00108085
0.00108
0.00107913
0.00107825
0.00107737
0.00107649
0.00107561
0.00107474
0.00107388
0.00107304
0.00107222
0.00107141
0.00107063
0.00106988
0.00106915
0.00106844
0.00106777
0.00106712
0.0010665
0.00106592
0.00106536
0.00106484
0.00106434
0.00106388
0.00106344
0.00106303
0.00106266
0.00106231
0.00106199
0.0010617
0.00106143
0.00106119
0.00106097
0.00106078
0.00106061
0.00106046
0.00106033
0.00106022
0.00106013
0.00106006
0.00106
0.00105996
0.00105994
0.00105993
0.00105992
0.00105993
0.00105995
0.00105998
0.00106002
0.00106006
0.00106011
0.00106016
0.00106022
0.00106028
0.00106034
0.0010604
0.00106047
0.00106053
0.00106059
0.00106064
0.0010607
0.00106075
0.00106079
0.00106083
0.00106086
0.00106089
0.00106091
0.00106093
0.00106094
3.13482e-05
3.01307e-05
5.10021e-05
9.95982e-05
0.000168548
0.000246208
0.000325176
0.000401707
0.000474031
0.000541396
0.00060359
0.000660687
0.000712909
0.000760553
0.00080394
0.000843396
0.000879239
0.000911766
0.000941258
0.000967972
0.000992146
0.001014
0.00103373
0.00105152
0.00106753
0.00108193
0.00109484
0.00110639
0.00111671
0.0011259
0.00113406
0.00114127
0.00114762
0.00115319
0.00115804
0.00116223
0.00116584
0.0011689
0.00117148
0.00117361
0.00117534
0.0011767
0.00117774
0.00117848
0.00117896
0.0011792
0.00117923
0.00117907
0.00117874
0.00117826
0.00117766
0.00117694
0.00117612
0.00117522
0.00117425
0.00117323
0.00117215
0.00117103
0.00116989
0.00116872
0.00116754
0.00116635
0.00116516
0.00116397
0.00116279
0.00116162
0.00116047
0.00115934
0.00115823
0.00115714
0.00115609
0.00115506
0.00115406
0.0011531
0.00115217
0.00115128
0.00115041
0.00114959
0.0011488
0.00114805
0.00114733
0.00114665
0.001146
0.00114539
0.00114481
0.00114427
0.00114376
0.00114328
0.00114284
0.00114242
0.00114204
0.00114168
0.00114136
0.00114105
0.00114078
0.00114053
0.0011403
0.00114009
0.00113991
0.00113974
0.00113959
0.00113947
0.00113935
0.00113925
0.00113917
0.0011391
0.00113904
0.00113899
0.00113895
0.00113892
0.0011389
0.00113888
0.00113887
0.00113887
0.00113886
0.00113886
0.00113887
0.00113887
0.00113888
0.00113888
0.00113889
0.0011389
0.0011389
0.0011389
0.0011389
3.20393e-05
3.08703e-05
5.25728e-05
0.000102662
0.000173388
0.000253146
0.000334663
0.000414209
0.000489945
0.000561018
0.000627111
0.000688208
0.000744457
0.000796094
0.000843396
0.000886659
0.000926174
0.000962225
0.000995079
0.00102499
0.00105219
0.0010769
0.00109931
0.00111962
0.00113799
0.00115457
0.00116953
0.00118297
0.00119504
0.00120583
0.00121546
0.00122402
0.0012316
0.00123828
0.00124414
0.00124924
0.00125365
0.00125743
0.00126063
0.00126331
0.0012655
0.00126727
0.00126863
0.00126964
0.00127033
0.00127072
0.00127085
0.00127074
0.00127043
0.00126992
0.00126926
0.00126844
0.00126749
0.00126644
0.00126528
0.00126405
0.00126275
0.00126138
0.00125998
0.00125853
0.00125706
0.00125557
0.00125406
0.00125256
0.00125105
0.00124955
0.00124806
0.00124659
0.00124514
0.00124372
0.00124232
0.00124095
0.00123961
0.00123831
0.00123705
0.00123582
0.00123463
0.00123348
0.00123237
0.00123131
0.00123028
0.0012293
0.00122835
0.00122745
0.00122659
0.00122577
0.00122499
0.00122425
0.00122355
0.00122289
0.00122226
0.00122167
0.00122112
0.00122059
0.00122011
0.00121965
0.00121923
0.00121883
0.00121846
0.00121812
0.00121781
0.00121752
0.00121725
0.00121701
0.00121679
0.00121658
0.0012164
0.00121623
0.00121608
0.00121594
0.00121582
0.00121571
0.00121562
0.00121553
0.00121546
0.00121539
0.00121534
0.00121529
0.00121525
0.00121521
0.00121519
0.00121517
0.00121515
0.00121514
0.00121513
3.26818e-05
3.15602e-05
5.40341e-05
0.000105465
0.000177734
0.000259283
0.000342986
0.000425155
0.000503909
0.000578314
0.000647965
0.00071276
0.000772777
0.000828192
0.000879239
0.000926174
0.000969264
0.00100877
0.00104495
0.00107805
0.00110829
0.00113589
0.00116104
0.00118393
0.00120473
0.0012236
0.00124069
0.00125614
0.00127006
0.00128258
0.00129381
0.00130384
0.00131278
0.00132069
0.00132768
0.00133381
0.00133914
0.00134375
0.0013477
0.00135103
0.0013538
0.00135607
0.00135786
0.00135923
0.00136022
0.00136085
0.00136116
0.00136119
0.00136095
0.00136049
0.00135981
0.00135895
0.00135793
0.00135676
0.00135547
0.00135406
0.00135256
0.00135098
0.00134934
0.00134764
0.00134589
0.00134411
0.00134231
0.00134049
0.00133866
0.00133683
0.00133501
0.00133319
0.0013314
0.00132962
0.00132787
0.00132614
0.00132445
0.0013228
0.00132118
0.0013196
0.00131806
0.00131657
0.00131512
0.00131372
0.00131236
0.00131105
0.00130978
0.00130857
0.0013074
0.00130628
0.0013052
0.00130417
0.00130319
0.00130225
0.00130136
0.00130051
0.0012997
0.00129894
0.00129821
0.00129753
0.00129688
0.00129628
0.0012957
0.00129517
0.00129466
0.00129419
0.00129375
0.00129334
0.00129296
0.00129261
0.00129228
0.00129198
0.0012917
0.00129144
0.00129121
0.00129099
0.0012908
0.00129063
0.00129047
0.00129033
0.0012902
0.00129009
0.00129
0.00128992
0.00128985
0.0012898
0.00128976
0.00128973
0.00128972
3.32816e-05
3.22066e-05
5.53999e-05
0.000108044
0.000181659
0.000264742
0.000350321
0.000434768
0.000516184
0.000593575
0.000666459
0.00073466
0.000798187
0.00085716
0.000911766
0.000962225
0.00100877
0.00105165
0.0010911
0.00112735
0.00116062
0.00119111
0.00121902
0.00124454
0.00126783
0.00128905
0.00130836
0.00132588
0.00134176
0.00135611
0.00136903
0.00138065
0.00139105
0.00140032
0.00140854
0.00141581
0.00142219
0.00142774
0.00143254
0.00143663
0.00144009
0.00144295
0.00144528
0.00144711
0.00144848
0.00144944
0.00145002
0.00145025
0.00145018
0.00144982
0.00144921
0.00144837
0.00144732
0.00144609
0.00144471
0.00144318
0.00144152
0.00143976
0.00143791
0.00143598
0.00143398
0.00143194
0.00142985
0.00142773
0.00142559
0.00142344
0.00142128
0.00141913
0.00141698
0.00141485
0.00141274
0.00141066
0.00140861
0.00140658
0.0014046
0.00140266
0.00140076
0.0013989
0.00139709
0.00139533
0.00139362
0.00139197
0.00139036
0.0013888
0.0013873
0.00138586
0.00138446
0.00138312
0.00138183
0.0013806
0.00137941
0.00137828
0.0013772
0.00137617
0.00137518
0.00137425
0.00137336
0.00137251
0.00137171
0.00137096
0.00137024
0.00136957
0.00136894
0.00136834
0.00136778
0.00136726
0.00136677
0.00136632
0.0013659
0.00136551
0.00136515
0.00136481
0.00136451
0.00136423
0.00136398
0.00136375
0.00136355
0.00136337
0.00136322
0.00136309
0.00136298
0.00136289
0.00136282
0.00136278
0.00136276
3.38437e-05
3.28147e-05
5.66818e-05
0.000110429
0.000185224
0.000269623
0.00035681
0.000443234
0.000526993
0.000607051
0.000682864
0.000754189
0.000820974
0.000883284
0.000941258
0.000995079
0.00104495
0.0010911
0.00113374
0.00117308
0.00120934
0.00124272
0.00127339
0.00130155
0.00132736
0.00135098
0.00137256
0.00139224
0.00141014
0.00142639
0.00144111
0.0014544
0.00146635
0.00147708
0.00148665
0.00149516
0.00150268
0.00150928
0.00151503
0.00152
0.00152424
0.0015278
0.00153075
0.00153313
0.00153498
0.00153636
0.00153729
0.00153782
0.00153798
0.0015378
0.00153732
0.00153656
0.00153556
0.00153433
0.0015329
0.0015313
0.00152953
0.00152763
0.00152561
0.00152349
0.00152127
0.00151899
0.00151664
0.00151424
0.00151181
0.00150935
0.00150687
0.00150438
0.0015019
0.00149941
0.00149695
0.0014945
0.00149208
0.00148969
0.00148733
0.00148501
0.00148274
0.00148051
0.00147833
0.0014762
0.00147412
0.00147209
0.00147013
0.00146822
0.00146636
0.00146457
0.00146284
0.00146116
0.00145955
0.00145799
0.00145649
0.00145505
0.00145367
0.00145235
0.00145109
0.00144988
0.00144872
0.00144762
0.00144657
0.00144558
0.00144463
0.00144374
0.00144289
0.00144209
0.00144134
0.00144063
0.00143997
0.00143934
0.00143876
0.00143822
0.00143772
0.00143726
0.00143683
0.00143644
0.00143608
0.00143576
0.00143547
0.00143522
0.00143499
0.0014348
0.00143464
0.00143452
0.00143442
0.00143436
0.00143432
3.4372e-05
3.33887e-05
5.78896e-05
0.000112645
0.000188479
0.000274008
0.000362574
0.000450708
0.000536526
0.00061896
0.000697418
0.000771601
0.000841398
0.000906823
0.000967972
0.00102499
0.00107805
0.00112735
0.00117308
0.00121545
0.00125465
0.00129088
0.0013243
0.0013551
0.00138345
0.00140949
0.00143338
0.00145525
0.00147524
0.00149346
0.00151004
0.00152508
0.00153868
0.00155094
0.00156194
0.00157179
0.00158054
0.00158829
0.00159509
0.00160102
0.00160614
0.0016105
0.00161417
0.00161719
0.00161962
0.00162149
0.00162286
0.00162376
0.00162423
0.00162431
0.00162404
0.00162343
0.00162253
0.00162137
0.00161996
0.00161833
0.00161651
0.00161452
0.00161237
0.00161009
0.0016077
0.0016052
0.00160262
0.00159997
0.00159727
0.00159452
0.00159174
0.00158893
0.00158611
0.00158329
0.00158047
0.00157766
0.00157487
0.00157211
0.00156938
0.00156668
0.00156402
0.00156141
0.00155885
0.00155633
0.00155387
0.00155147
0.00154913
0.00154684
0.00154462
0.00154247
0.00154037
0.00153835
0.00153638
0.00153449
0.00153266
0.00153089
0.00152919
0.00152756
0.00152599
0.00152449
0.00152305
0.00152167
0.00152036
0.0015191
0.00151791
0.00151677
0.00151569
0.00151467
0.0015137
0.00151279
0.00151193
0.00151113
0.00151037
0.00150966
0.00150901
0.0015084
0.00150783
0.00150732
0.00150685
0.00150642
0.00150603
0.00150569
0.0015054
0.00150514
0.00150493
0.00150476
0.00150463
0.00150454
0.0015045
3.48703e-05
3.39325e-05
5.90316e-05
0.000114713
0.000191467
0.000277968
0.000367713
0.000457325
0.000544945
0.000629491
0.000710331