/*--------------------------------*- C++ -*----------------------------------*\
| =========                 |                                                 |
| \\      /  F ield         | OpenFOAM: The Open Source CFD Toolbox           |
|  \\    /   O peration     | Version:  2306                                  |
|   \\  /    A nd           | Website:  www.openfoam.com                      |
|    \\/     M anipulation  |                                                 |
\*---------------------------------------------------------------------------*/
// * * * * * * * * * * * * * * * * * * * * * * * * * * * * * * * * * * * * * //
FoamFile
{
    version         2;
    format          ascii;
    class           volScalarField;
    location        "98.96";
    object          p;
}

dimensions      [ 0 2 -2 0 0 0 0 ];

internalField   nonuniform List<scalar> 
15625
(
1.34555e-16
3.25684e-16
3.64718e-16
3.69738e-16
3.73536e-16
3.75645e-16
3.76247e-16
3.76187e-16
3.75842e-16
3.75358e-16
3.7477e-16
3.74108e-16
3.73393e-16
3.72627e-16
3.71826e-16
3.71037e-16
3.70195e-16
3.69373e-16
3.68533e-16
3.67688e-16
3.66845e-16
3.66014e-16
3.65192e-16
3.64398e-16
3.63578e-16
3.62757e-16
3.6195e-16
3.61152e-16
3.60357e-16
3.59541e-16
3.58747e-16
3.57958e-16
3.57178e-16
3.56398e-16
3.55646e-16
3.54839e-16
3.54031e-16
3.53258e-16
3.52473e-16
3.51695e-16
3.50938e-16
3.50191e-16
3.49432e-16
3.48672e-16
3.47944e-16
3.47183e-16
3.46428e-16
3.45672e-16
3.44933e-16
3.44245e-16
3.43552e-16
3.42807e-16
3.42088e-16
3.41395e-16
3.40723e-16
3.40068e-16
3.39366e-16
3.38663e-16
3.37953e-16
3.3723e-16
3.36548e-16
3.35861e-16
3.35182e-16
3.34446e-16
3.33717e-16
3.32996e-16
3.32294e-16
3.3163e-16
3.30942e-16
3.30262e-16
3.29559e-16
3.28891e-16
3.28216e-16
3.27493e-16
3.26865e-16
3.26253e-16
3.25577e-16
3.24914e-16
3.24192e-16
3.23504e-16
3.22892e-16
3.22228e-16
3.21607e-16
3.20962e-16
3.20329e-16
3.19725e-16
3.19163e-16
3.18575e-16
3.17957e-16
3.17397e-16
3.16864e-16
3.16385e-16
3.15906e-16
3.15424e-16
3.14969e-16
3.14622e-16
3.14129e-16
3.13601e-16
3.1319e-16
3.12799e-16
3.12431e-16
3.12135e-16
3.11775e-16
3.11465e-16
3.11221e-16
3.10971e-16
3.10755e-16
3.10571e-16
3.10332e-16
3.10185e-16
3.10015e-16
3.0991e-16
3.09804e-16
3.09624e-16
3.09512e-16
3.09367e-16
3.09366e-16
3.0935e-16
3.09176e-16
3.09094e-16
3.08998e-16
3.08929e-16
3.08831e-16
3.08794e-16
3.08802e-16
3.25684e-16
3.58973e-16
3.6847e-16
3.70717e-16
3.72951e-16
3.74501e-16
3.75192e-16
3.75355e-16
3.75188e-16
3.74859e-16
3.74393e-16
3.73797e-16
3.73131e-16
3.72416e-16
3.71666e-16
3.70884e-16
3.70067e-16
3.6926e-16
3.68482e-16
3.67618e-16
3.66785e-16
3.65951e-16
3.65123e-16
3.64288e-16
3.635e-16
3.62725e-16
3.61925e-16
3.61119e-16
3.6033e-16
3.5952e-16
3.58722e-16
3.57925e-16
3.57133e-16
3.56355e-16
3.55607e-16
3.54811e-16
3.54022e-16
3.53268e-16
3.52459e-16
3.51656e-16
3.50911e-16
3.5018e-16
3.49411e-16
3.48658e-16
3.47929e-16
3.47194e-16
3.46413e-16
3.45681e-16
3.44954e-16
3.44243e-16
3.43527e-16
3.42773e-16
3.42088e-16
3.41385e-16
3.40713e-16
3.40034e-16
3.39347e-16
3.38651e-16
3.37937e-16
3.37221e-16
3.36519e-16
3.35835e-16
3.35138e-16
3.34439e-16
3.33707e-16
3.32994e-16
3.3228e-16
3.31645e-16
3.30928e-16
3.30258e-16
3.29547e-16
3.2891e-16
3.28243e-16
3.27496e-16
3.26873e-16
3.26273e-16
3.25583e-16
3.24939e-16
3.24228e-16
3.23528e-16
3.22902e-16
3.22213e-16
3.21619e-16
3.2096e-16
3.20355e-16
3.1978e-16
3.19184e-16
3.18586e-16
3.17979e-16
3.17413e-16
3.16848e-16
3.16389e-16
3.15909e-16
3.15413e-16
3.14988e-16
3.14565e-16
3.14068e-16
3.13581e-16
3.13171e-16
3.12794e-16
3.12423e-16
3.12107e-16
3.11785e-16
3.11409e-16
3.11185e-16
3.10968e-16
3.107e-16
3.10565e-16
3.10372e-16
3.10176e-16
3.10015e-16
3.0994e-16
3.09792e-16
3.09586e-16
3.09526e-16
3.09386e-16
3.09376e-16
3.09338e-16
3.09204e-16
3.09135e-16
3.09012e-16
3.08915e-16
3.08839e-16
3.08801e-16
3.08805e-16
3.64709e-16
3.68467e-16
3.68905e-16
3.70237e-16
3.71983e-16
3.73325e-16
3.74107e-16
3.74456e-16
3.74479e-16
3.74259e-16
3.73898e-16
3.73417e-16
3.72774e-16
3.72112e-16
3.71383e-16
3.70653e-16
3.69833e-16
3.69042e-16
3.68307e-16
3.67475e-16
3.66676e-16
3.65858e-16
3.65034e-16
3.64218e-16
3.63455e-16
3.62672e-16
3.61873e-16
3.61033e-16
3.60242e-16
3.59451e-16
3.58648e-16
3.57843e-16
3.57054e-16
3.56267e-16
3.55536e-16
3.54797e-16
3.53985e-16
3.5326e-16
3.5243e-16
3.51645e-16
3.50859e-16
3.50122e-16
3.49361e-16
3.48621e-16
3.47928e-16
3.47178e-16
3.46434e-16
3.45654e-16
3.4492e-16
3.4423e-16
3.43511e-16
3.42784e-16
3.42094e-16
3.4137e-16
3.40677e-16
3.40037e-16
3.39327e-16
3.38643e-16
3.37985e-16
3.37253e-16
3.36519e-16
3.35871e-16
3.35152e-16
3.34418e-16
3.33711e-16
3.32988e-16
3.32282e-16
3.31619e-16
3.30938e-16
3.30272e-16
3.29542e-16
3.28835e-16
3.28285e-16
3.27491e-16
3.26841e-16
3.26277e-16
3.2559e-16
3.24921e-16
3.24243e-16
3.23469e-16
3.2283e-16
3.22199e-16
3.2164e-16
3.20946e-16
3.20309e-16
3.19772e-16
3.19219e-16
3.1866e-16
3.1804e-16
3.17398e-16
3.16832e-16
3.16412e-16
3.15953e-16
3.15377e-16
3.14998e-16
3.14497e-16
3.14047e-16
3.13552e-16
3.1314e-16
3.12754e-16
3.1236e-16
3.12144e-16
3.11806e-16
3.11433e-16
3.11244e-16
3.11045e-16
3.10643e-16
3.10539e-16
3.10429e-16
3.10168e-16
3.10025e-16
3.09942e-16
3.09833e-16
3.09562e-16
3.09562e-16
3.0941e-16
3.0939e-16
3.09381e-16
3.09262e-16
3.09134e-16
3.09058e-16
3.08915e-16
3.08859e-16
3.08843e-16
3.08811e-16
3.69722e-16
3.70715e-16
3.70264e-16
3.70695e-16
3.71634e-16
3.72564e-16
3.73244e-16
3.73635e-16
3.73698e-16
3.73574e-16
3.7329e-16
3.72889e-16
3.72347e-16
3.71808e-16
3.7109e-16
3.70379e-16
3.69514e-16
3.68776e-16
3.68151e-16
3.67224e-16
3.66428e-16
3.65667e-16
3.64845e-16
3.64073e-16
3.63402e-16
3.62546e-16
3.61761e-16
3.60959e-16
3.60115e-16
3.59306e-16
3.58468e-16
3.57776e-16
3.57162e-16
3.56205e-16
3.55435e-16
3.54859e-16
3.53896e-16
3.53135e-16
3.52342e-16
3.51727e-16
3.50868e-16
3.50155e-16
3.49412e-16
3.48516e-16
3.47874e-16
3.47212e-16
3.46334e-16
3.45562e-16
3.4482e-16
3.44205e-16
3.43484e-16
3.42704e-16
3.42057e-16
3.41289e-16
3.40654e-16
3.40078e-16
3.39415e-16
3.38628e-16
3.37968e-16
3.37293e-16
3.36468e-16
3.35952e-16
3.3519e-16
3.3433e-16
3.33661e-16
3.33107e-16
3.32364e-16
3.3161e-16
3.30972e-16
3.30428e-16
3.29484e-16
3.28724e-16
3.28222e-16
3.27617e-16
3.26773e-16
3.26141e-16
3.25504e-16
3.24917e-16
3.24078e-16
3.23428e-16
3.22814e-16
3.22132e-16
3.21614e-16
3.20948e-16
3.2025e-16
3.19673e-16
3.19357e-16
3.18714e-16
3.17975e-16
3.17348e-16
3.16926e-16
3.16458e-16
3.15936e-16
3.15369e-16
3.15051e-16
3.14455e-16
3.14066e-16
3.13564e-16
3.13237e-16
3.12714e-16
3.12345e-16
3.12133e-16
3.11702e-16
3.11507e-16
3.11157e-16
3.10852e-16
3.10528e-16
3.10499e-16
3.10385e-16
3.1015e-16
3.10038e-16
3.09869e-16
3.09805e-16
3.09419e-16
3.09508e-16
3.09472e-16
3.09499e-16
3.09446e-16
3.09318e-16
3.0904e-16
3.09054e-16
3.08881e-16
3.08837e-16
3.08988e-16
3.08834e-16
3.73511e-16
3.72939e-16
3.71981e-16
3.71632e-16
3.71771e-16
3.72187e-16
3.72594e-16
3.72859e-16
3.72936e-16
3.72765e-16
3.72632e-16
3.72228e-16
3.71769e-16
3.71269e-16
3.70696e-16
3.69962e-16
3.69249e-16
3.68543e-16
3.67741e-16
3.66877e-16
3.66173e-16
3.65419e-16
3.64558e-16
3.64005e-16
3.63161e-16
3.62381e-16
3.61542e-16
3.60784e-16
3.60075e-16
3.59237e-16
3.58438e-16
3.57718e-16
3.57166e-16
3.56147e-16
3.55292e-16
3.54664e-16
3.53824e-16
3.52975e-16
3.52211e-16
3.51597e-16
3.508e-16
3.50134e-16
3.49388e-16
3.48435e-16
3.47871e-16
3.47078e-16
3.46343e-16
3.45546e-16
3.4486e-16
3.44049e-16
3.43452e-16
3.42563e-16
3.41984e-16
3.41455e-16
3.4056e-16
3.39981e-16
3.39202e-16
3.38577e-16
3.38006e-16
3.37231e-16
3.36463e-16
3.35863e-16
3.35187e-16
3.34382e-16
3.33618e-16
3.33029e-16
3.32007e-16
3.31623e-16
3.30963e-16
3.30248e-16
3.29528e-16
3.28842e-16
3.28148e-16
3.2754e-16
3.2688e-16
3.26189e-16
3.25459e-16
3.25077e-16
3.24286e-16
3.23523e-16
3.22956e-16
3.22172e-16
3.21442e-16
3.20919e-16
3.20272e-16
3.19427e-16
3.192e-16
3.18548e-16
3.17839e-16
3.17429e-16
3.16877e-16
3.16423e-16
3.15973e-16
3.15487e-16
3.14965e-16
3.14473e-16
3.14255e-16
3.13613e-16
3.13138e-16
3.12577e-16
3.12403e-16
3.11995e-16
3.11691e-16
3.11487e-16
3.1117e-16
3.1088e-16
3.1059e-16
3.10543e-16
3.10062e-16
3.10119e-16
3.10107e-16
3.09839e-16
3.09874e-16
3.09476e-16
3.09448e-16
3.09309e-16
3.09345e-16
3.09365e-16
3.0915e-16
3.09023e-16
3.09037e-16
3.08755e-16
3.08712e-16
3.08678e-16
3.08531e-16
3.75619e-16
3.74489e-16
3.73314e-16
3.72559e-16
3.72187e-16
3.72112e-16
3.72234e-16
3.72346e-16
3.724e-16
3.72185e-16
3.71952e-16
3.7161e-16
3.71142e-16
3.70509e-16
3.7005e-16
3.69294e-16
3.68781e-16
3.68219e-16
3.67434e-16
3.66633e-16
3.65893e-16
3.65276e-16
3.64574e-16
3.63482e-16
3.62912e-16
3.62107e-16
3.61271e-16
3.60562e-16
3.59911e-16
3.59112e-16
3.58296e-16
3.57538e-16
3.56809e-16
3.55899e-16
3.5522e-16
3.54615e-16
3.53701e-16
3.52635e-16
3.52108e-16
3.51358e-16
3.50688e-16
3.50091e-16
3.49294e-16
3.48355e-16
3.47812e-16
3.46997e-16
3.46524e-16
3.45377e-16
3.44593e-16
3.43973e-16
3.43274e-16
3.42382e-16
3.41791e-16
3.41384e-16
3.40432e-16
3.39982e-16
3.39149e-16
3.38472e-16
3.37805e-16
3.37087e-16
3.36354e-16
3.3591e-16
3.35431e-16
3.34479e-16
3.33638e-16
3.32767e-16
3.31955e-16
3.31493e-16
3.30514e-16
3.3002e-16
3.29505e-16
3.28871e-16
3.28225e-16
3.27528e-16
3.2686e-16
3.25997e-16
3.25394e-16
3.25107e-16
3.24641e-16
3.23503e-16
3.2293e-16
3.2225e-16
3.21491e-16
3.20526e-16
3.19934e-16
3.19446e-16
3.18939e-16
3.18161e-16
3.17543e-16
3.17304e-16
3.16822e-16
3.16525e-16
3.15849e-16
3.15515e-16
3.14889e-16
3.14522e-16
3.14254e-16
3.13786e-16
3.12643e-16
3.12405e-16
3.12335e-16
3.11789e-16
3.11549e-16
3.11332e-16
3.11267e-16
3.10822e-16
3.10456e-16
3.10449e-16
3.09897e-16
3.10064e-16
3.09863e-16
3.09785e-16
3.09988e-16
3.09384e-16
3.09366e-16
3.09051e-16
3.09435e-16
3.09651e-16
3.0911e-16
3.09037e-16
3.09164e-16
3.087e-16
3.08754e-16
3.08445e-16
3.08294e-16
3.76221e-16
3.75176e-16
3.74092e-16
3.73217e-16
3.72584e-16
3.72198e-16
3.72022e-16
3.7192e-16
3.71786e-16
3.71676e-16
3.71375e-16
3.71074e-16
3.70585e-16
3.70051e-16
3.69595e-16
3.69037e-16
3.68344e-16
3.67786e-16
3.67106e-16
3.66365e-16
3.65574e-16
3.64936e-16
3.64184e-16
3.63272e-16
3.62673e-16
3.61846e-16
3.61064e-16
3.60332e-16
3.59695e-16
3.58741e-16
3.58023e-16
3.57335e-16
3.56643e-16
3.55804e-16
3.54974e-16
3.54349e-16
3.53488e-16
3.52854e-16
3.51977e-16
3.51355e-16
3.5058e-16
3.49847e-16
3.49024e-16
3.48386e-16
3.47761e-16
3.46737e-16
3.46158e-16
3.45324e-16
3.44553e-16
3.43845e-16
3.42946e-16
3.42433e-16
3.41835e-16
3.41179e-16
3.40347e-16
3.39763e-16
3.39059e-16
3.38337e-16
3.37516e-16
3.36772e-16
3.36272e-16
3.35703e-16
3.35071e-16
3.34398e-16
3.33815e-16
3.32625e-16
3.31822e-16
3.31471e-16
3.30806e-16
3.30014e-16
3.29464e-16
3.28835e-16
3.28196e-16
3.27166e-16
3.26605e-16
3.26023e-16
3.25481e-16
3.24788e-16
3.24512e-16
3.23087e-16
3.22891e-16
3.22505e-16
3.21636e-16
3.20491e-16
3.20079e-16
3.19358e-16
3.18503e-16
3.18216e-16
3.1785e-16
3.17195e-16
3.16685e-16
3.16233e-16
3.15773e-16
3.15381e-16
3.15036e-16
3.14646e-16
3.14328e-16
3.13498e-16
3.12788e-16
3.12575e-16
3.12377e-16
3.1143e-16
3.11263e-16
3.11141e-16
3.10796e-16
3.10619e-16
3.1043e-16
3.10374e-16
3.10365e-16
3.10026e-16
3.09484e-16
3.09726e-16
3.10003e-16
3.09667e-16
3.09263e-16
3.08908e-16
3.09315e-16
3.09197e-16
3.091e-16
3.08999e-16
3.08926e-16
3.09041e-16
3.08982e-16
3.09557e-16
3.08809e-16
3.76178e-16
3.75344e-16
3.74432e-16
3.73563e-16
3.72822e-16
3.72244e-16
3.71917e-16
3.71636e-16
3.71357e-16
3.71239e-16
3.7085e-16
3.70468e-16
3.70021e-16
3.69477e-16
3.69152e-16
3.68631e-16
3.67911e-16
3.67205e-16
3.66536e-16
3.65746e-16
3.65048e-16
3.64415e-16
3.64091e-16
3.63025e-16
3.62205e-16
3.61501e-16
3.60716e-16
3.60089e-16
3.59539e-16
3.58427e-16
3.5767e-16
3.57088e-16
3.56661e-16
3.56206e-16
3.55032e-16
3.5411e-16
3.53367e-16
3.52576e-16
3.51935e-16
3.5136e-16
3.50517e-16
3.49719e-16
3.4917e-16
3.48307e-16
3.47306e-16
3.46418e-16
3.45708e-16
3.45124e-16
3.44371e-16
3.43823e-16
3.42663e-16
3.42274e-16
3.42018e-16
3.40505e-16
3.40182e-16
3.39581e-16
3.39225e-16
3.38506e-16
3.37553e-16
3.3661e-16
3.3587e-16
3.35498e-16
3.34926e-16
3.34507e-16
3.3378e-16
3.3272e-16
3.32138e-16
3.31527e-16
3.31208e-16
3.29791e-16
3.29446e-16
3.28792e-16
3.28117e-16
3.27661e-16
3.26547e-16
3.25423e-16
3.25581e-16
3.24877e-16
3.241e-16
3.2261e-16
3.22202e-16
3.22384e-16
3.21566e-16
3.20894e-16
3.20311e-16
3.20147e-16
3.18372e-16
3.18037e-16
3.18471e-16
3.17009e-16
3.1644e-16
3.15765e-16
3.1481e-16
3.15534e-16
3.14633e-16
3.14367e-16
3.14027e-16
3.13435e-16
3.12762e-16
3.12252e-16
3.12059e-16
3.11453e-16
3.11279e-16
3.10877e-16
3.10563e-16
3.10758e-16
3.10121e-16
3.10274e-16
3.09965e-16
3.09936e-16
3.09357e-16
3.09759e-16
3.09778e-16
3.09558e-16
3.09131e-16
3.0928e-16
3.08786e-16
3.0888e-16
3.09303e-16
3.08946e-16
3.08685e-16
3.09183e-16
3.08741e-16
3.09901e-16
3.08548e-16
3.75858e-16
3.75225e-16
3.74468e-16
3.73723e-16
3.7293e-16
3.72186e-16
3.71825e-16
3.71393e-16
3.70959e-16
3.70747e-16
3.70407e-16
3.70011e-16
3.69584e-16
3.69275e-16
3.68457e-16
3.67962e-16
3.6764e-16
3.66682e-16
3.66049e-16
3.65197e-16
3.64116e-16
3.63469e-16
3.63219e-16
3.62786e-16
3.6176e-16
3.61107e-16
3.60178e-16
3.59744e-16
3.5945e-16
3.58382e-16
3.57743e-16
3.56916e-16
3.56436e-16
3.55629e-16
3.55018e-16
3.54193e-16
3.53517e-16
3.52506e-16
3.5183e-16
3.51091e-16
3.50752e-16
3.49615e-16
3.48877e-16
3.47528e-16
3.46588e-16
3.45934e-16
3.44667e-16
3.44575e-16
3.43808e-16
3.441e-16
3.42569e-16
3.41797e-16
3.42314e-16
3.40117e-16
3.39959e-16
3.40139e-16
3.38612e-16
3.38335e-16
3.37381e-16
3.36882e-16
3.35791e-16
3.35387e-16
3.34965e-16
3.3423e-16
3.33634e-16
3.32468e-16
3.32417e-16
3.31428e-16
3.3097e-16
3.30049e-16
3.29579e-16
3.28747e-16
3.2782e-16
3.2715e-16
3.27097e-16
3.2607e-16
3.25508e-16
3.25526e-16
3.23977e-16
3.22811e-16
3.22875e-16
3.22298e-16
3.21739e-16
3.20744e-16
3.19987e-16
3.2033e-16
3.18219e-16
3.17902e-16
3.18285e-16
3.17177e-16
3.16667e-16
3.15973e-16
3.14826e-16
3.1547e-16
3.13923e-16
3.13474e-16
3.14364e-16
3.12962e-16
3.12806e-16
3.12899e-16
3.11989e-16
3.11034e-16
3.11238e-16
3.104e-16
3.09848e-16
3.10396e-16
3.10435e-16
3.10319e-16
3.09961e-16
3.09755e-16
3.09686e-16
3.10057e-16
3.09337e-16
3.09634e-16
3.08924e-16
3.09782e-16
3.07999e-16
3.09654e-16
3.09275e-16
3.0898e-16
3.08783e-16
3.09637e-16
3.08466e-16
3.08978e-16
3.08193e-16
3.75385e-16
3.74887e-16
3.74288e-16
3.73662e-16
3.72974e-16
3.72198e-16
3.71614e-16
3.71142e-16
3.70658e-16
3.70443e-16
3.70144e-16
3.69844e-16
3.69169e-16
3.68712e-16
3.67843e-16
3.67103e-16
3.66923e-16
3.66492e-16
3.65696e-16
3.64933e-16
3.64066e-16
3.63448e-16
3.62935e-16
3.62609e-16
3.61651e-16
3.61051e-16
3.60311e-16
3.59381e-16
3.58992e-16
3.58112e-16
3.5739e-16
3.56716e-16
3.56318e-16
3.55941e-16
3.54631e-16
3.53762e-16
3.53264e-16
3.52165e-16
3.52018e-16
3.5153e-16
3.51089e-16
3.49463e-16
3.48982e-16
3.47636e-16
3.462e-16
3.45833e-16
3.45557e-16
3.44558e-16
3.43703e-16
3.43198e-16
3.42929e-16
3.42082e-16
3.42022e-16
3.40832e-16
3.40436e-16
3.40567e-16
3.39202e-16
3.38773e-16
3.37585e-16
3.37203e-16
3.35618e-16
3.35695e-16
3.35306e-16
3.34059e-16
3.34105e-16
3.32416e-16
3.31358e-16
3.31022e-16
3.31255e-16
3.30301e-16
3.29408e-16
3.28646e-16
3.28249e-16
3.27434e-16
3.26732e-16
3.25673e-16
3.25801e-16
3.252e-16
3.23653e-16
3.23196e-16
3.23076e-16
3.21621e-16
3.21587e-16
3.20837e-16
3.20757e-16
3.20225e-16
3.18147e-16
3.18009e-16
3.17483e-16
3.16782e-16
3.15952e-16
3.16222e-16
3.14956e-16
3.15441e-16
3.13671e-16
3.13732e-16
3.13998e-16
3.12915e-16
3.12913e-16
3.12862e-16
3.12077e-16
3.10931e-16
3.11419e-16
3.10524e-16
3.10646e-16
3.11078e-16
3.11132e-16
3.106e-16
3.09902e-16
3.09359e-16
3.09614e-16
3.10178e-16
3.09378e-16
3.09486e-16
3.08888e-16
3.09214e-16
3.08965e-16
3.1004e-16
3.08934e-16
3.09125e-16
3.07635e-16
3.097e-16
3.08057e-16
3.07732e-16
3.07279e-16
3.74818e-16
3.74433e-16
3.73938e-16
3.73354e-16
3.72706e-16
3.71964e-16
3.71389e-16
3.70886e-16
3.70439e-16
3.69869e-16
3.69707e-16
3.69322e-16
3.68765e-16
3.6804e-16
3.6749e-16
3.66861e-16
3.66371e-16
3.65816e-16
3.65349e-16
3.64651e-16
3.64117e-16
3.63095e-16
3.62626e-16
3.61668e-16
3.60558e-16
3.60624e-16
3.60137e-16
3.59322e-16
3.58428e-16
3.5768e-16
3.56953e-16
3.56742e-16
3.56018e-16
3.55031e-16
3.54166e-16
3.53296e-16
3.52987e-16
3.52118e-16
3.51894e-16
3.50938e-16
3.50111e-16
3.49033e-16
3.48861e-16
3.47252e-16
3.46878e-16
3.46103e-16
3.44966e-16
3.44328e-16
3.4348e-16
3.43118e-16
3.42226e-16
3.41883e-16
3.41241e-16
3.40337e-16
3.39982e-16
3.39544e-16
3.38768e-16
3.38084e-16
3.37324e-16
3.36781e-16
3.35791e-16
3.35474e-16
3.34981e-16
3.33607e-16
3.33139e-16
3.32482e-16
3.31404e-16
3.31186e-16
3.30718e-16
3.29987e-16
3.29143e-16
3.28237e-16
3.28056e-16
3.27582e-16
3.2639e-16
3.25909e-16
3.25828e-16
3.24653e-16
3.24222e-16
3.23245e-16
3.22511e-16
3.22056e-16
3.21146e-16
3.20449e-16
3.20037e-16
3.1963e-16
3.19143e-16
3.18299e-16
3.16677e-16
3.16403e-16
3.16027e-16
3.16224e-16
3.14934e-16
3.15237e-16
3.14657e-16
3.14114e-16
3.13743e-16
3.12434e-16
3.12144e-16
3.1238e-16
3.11439e-16
3.11054e-16
3.11088e-16
3.10116e-16
3.10555e-16
3.10263e-16
3.10282e-16
3.1015e-16
3.09617e-16
3.09444e-16
3.09269e-16
3.10128e-16
3.09603e-16
3.09256e-16
3.08549e-16
3.08922e-16
3.08859e-16
3.09169e-16
3.08612e-16
3.08741e-16
3.0828e-16
3.08813e-16
3.08521e-16
3.08244e-16
3.07501e-16
3.74187e-16
3.73875e-16
3.73481e-16
3.72982e-16
3.72311e-16
3.7167e-16
3.71093e-16
3.70556e-16
3.69972e-16
3.69143e-16
3.69167e-16
3.68762e-16
3.68073e-16
3.6712e-16
3.66921e-16
3.66279e-16
3.65828e-16
3.6499e-16
3.6482e-16
3.64366e-16
3.63716e-16
3.63088e-16
3.6256e-16
3.60593e-16
3.60482e-16
3.59908e-16
3.59506e-16
3.58786e-16
3.5786e-16
3.5719e-16
3.56044e-16
3.56347e-16
3.55215e-16
3.54112e-16
3.53836e-16
3.53515e-16
3.53622e-16
3.51725e-16
3.51296e-16
3.50507e-16
3.49707e-16
3.49354e-16
3.48825e-16
3.47029e-16
3.47137e-16
3.45884e-16
3.44458e-16
3.4409e-16
3.42902e-16
3.42947e-16
3.41966e-16
3.42012e-16
3.42163e-16
3.40862e-16
3.39825e-16
3.39191e-16
3.38369e-16
3.37368e-16
3.36626e-16
3.36313e-16
3.35964e-16
3.35467e-16
3.35269e-16
3.33764e-16
3.33106e-16
3.32401e-16
3.32231e-16
3.31632e-16
3.30518e-16
3.29712e-16
3.28642e-16
3.28597e-16
3.27994e-16
3.27161e-16
3.26616e-16
3.25964e-16
3.25446e-16
3.2391e-16
3.23735e-16
3.23173e-16
3.21757e-16
3.22972e-16
3.20566e-16
3.20126e-16
3.20118e-16
3.19649e-16
3.18462e-16
3.17671e-16
3.16068e-16
3.16856e-16
3.15454e-16
3.15651e-16
3.15285e-16
3.14372e-16
3.14738e-16
3.13657e-16
3.13051e-16
3.123e-16
3.12429e-16
3.12303e-16
3.11843e-16
3.10844e-16
3.10153e-16
3.10244e-16
3.10904e-16
3.1125e-16
3.09956e-16
3.1016e-16
3.09002e-16
3.09008e-16
3.09241e-16
3.0984e-16
3.09433e-16
3.09293e-16
3.08651e-16
3.08748e-16
3.08628e-16
3.08987e-16
3.08214e-16
3.08347e-16
3.08676e-16
3.08416e-16
3.08051e-16
3.08714e-16
3.08281e-16
3.735e-16
3.73244e-16
3.72908e-16
3.72473e-16
3.71887e-16
3.71306e-16
3.70705e-16
3.70131e-16
3.69537e-16
3.69024e-16
3.6865e-16
3.68111e-16
3.67737e-16
3.66828e-16
3.66389e-16
3.65907e-16
3.65426e-16
3.64008e-16
3.63852e-16
3.63682e-16
3.63086e-16
3.62212e-16
3.61648e-16
3.60689e-16
3.60422e-16
3.5956e-16
3.59097e-16
3.5838e-16
3.57621e-16
3.57062e-16
3.5634e-16
3.55777e-16
3.54909e-16
3.53573e-16
3.5352e-16
3.52502e-16
3.52756e-16
3.51599e-16
3.5109e-16
3.5022e-16
3.49114e-16
3.48642e-16
3.48137e-16
3.46926e-16
3.46679e-16
3.45606e-16
3.45171e-16
3.43243e-16
3.42751e-16
3.42972e-16
3.41932e-16
3.42085e-16
3.40777e-16
3.40141e-16
3.39857e-16
3.39386e-16
3.37899e-16
3.37772e-16
3.37094e-16
3.37022e-16
3.35794e-16
3.35132e-16
3.3405e-16
3.33306e-16
3.33092e-16
3.31862e-16
3.31957e-16
3.31055e-16
3.3013e-16
3.29296e-16
3.2861e-16
3.29022e-16
3.27777e-16
3.27846e-16
3.26655e-16
3.25445e-16
3.25786e-16
3.24414e-16
3.24597e-16
3.23254e-16
3.21372e-16
3.22316e-16
3.20452e-16
3.20058e-16
3.19933e-16
3.2025e-16
3.18011e-16
3.17117e-16
3.17074e-16
3.16708e-16
3.1524e-16
3.15272e-16
3.15892e-16
3.14011e-16
3.14318e-16
3.13183e-16
3.13432e-16
3.12432e-16
3.11821e-16
3.11713e-16
3.1167e-16
3.10302e-16
3.09634e-16
3.10167e-16
3.10406e-16
3.10735e-16
3.09659e-16
3.10273e-16
3.08887e-16
3.08841e-16
3.08906e-16
3.0931e-16
3.09722e-16
3.09136e-16
3.08154e-16
3.0845e-16
3.08585e-16
3.08616e-16
3.08226e-16
3.08936e-16
3.08077e-16
3.08369e-16
3.08264e-16
3.09505e-16
3.08809e-16
3.72768e-16
3.72551e-16
3.72262e-16
3.71808e-16
3.71346e-16
3.70966e-16
3.70283e-16
3.69573e-16
3.688e-16
3.68641e-16
3.68406e-16
3.68084e-16
3.67383e-16
3.6647e-16
3.65482e-16
3.65114e-16
3.64896e-16
3.64122e-16
3.63448e-16
3.63148e-16
3.63089e-16
3.62027e-16
3.60816e-16
3.60369e-16
3.59827e-16
3.58182e-16
3.58454e-16
3.57977e-16
3.57189e-16
3.57268e-16
3.56529e-16
3.55423e-16
3.5497e-16
3.54195e-16
3.53968e-16
3.52593e-16
3.5251e-16
3.51338e-16
3.49981e-16
3.49896e-16
3.48978e-16
3.4772e-16
3.47742e-16
3.47447e-16
3.47159e-16
3.46116e-16
3.44986e-16
3.43653e-16
3.43372e-16
3.43687e-16
3.41953e-16
3.40208e-16
3.40527e-16
3.393e-16
3.40007e-16
3.40084e-16
3.37849e-16
3.38394e-16
3.37051e-16
3.36924e-16
3.34944e-16
3.34388e-16
3.33178e-16
3.33386e-16
3.33051e-16
3.32001e-16
3.30997e-16
3.30446e-16
3.29369e-16
3.28187e-16
3.28812e-16
3.2866e-16
3.27722e-16
3.27297e-16
3.26418e-16
3.25424e-16
3.25357e-16
3.25269e-16
3.24409e-16
3.23333e-16
3.21418e-16
3.22161e-16
3.20897e-16
3.20377e-16
3.20549e-16
3.19798e-16
3.17415e-16
3.17339e-16
3.1708e-16
3.16789e-16
3.15553e-16
3.14849e-16
3.14311e-16
3.13869e-16
3.13289e-16
3.13276e-16
3.14117e-16
3.11744e-16
3.11885e-16
3.11504e-16
3.11098e-16
3.10741e-16
3.08839e-16
3.09989e-16
3.1048e-16
3.10283e-16
3.09146e-16
3.10269e-16
3.09296e-16
3.07813e-16
3.09642e-16
3.09544e-16
3.08981e-16
3.07728e-16
3.07786e-16
3.07991e-16
3.08762e-16
3.08351e-16
3.07709e-16
3.10046e-16
3.06707e-16
3.08253e-16
3.08077e-16
3.08676e-16
3.08233e-16
3.72015e-16
3.71833e-16
3.71606e-16
3.71183e-16
3.70634e-16
3.70377e-16
3.69869e-16
3.69341e-16
3.68671e-16
3.68231e-16
3.67726e-16
3.67275e-16
3.66924e-16
3.66529e-16
3.65478e-16
3.64526e-16
3.64249e-16
3.63489e-16
3.63297e-16
3.62348e-16
3.62256e-16
3.6151e-16
3.60799e-16
3.60101e-16
3.58823e-16
3.58093e-16
3.57756e-16
3.57584e-16
3.5729e-16
3.57496e-16
3.55903e-16
3.54713e-16
3.55533e-16
3.54631e-16
3.53877e-16
3.53582e-16
3.52229e-16
3.50984e-16
3.50538e-16
3.49781e-16
3.48687e-16
3.48445e-16
3.4756e-16
3.4641e-16
3.47033e-16
3.45942e-16
3.44542e-16
3.42574e-16
3.43043e-16
3.43214e-16
3.41981e-16
3.40538e-16
3.40915e-16
3.39854e-16
3.38979e-16
3.38039e-16
3.38334e-16
3.37782e-16
3.36235e-16
3.36235e-16
3.34882e-16
3.34681e-16
3.33418e-16
3.3314e-16
3.33089e-16
3.32121e-16
3.31271e-16
3.30752e-16
3.30178e-16
3.29109e-16
3.28539e-16
3.27784e-16
3.27707e-16
3.2817e-16
3.27727e-16
3.26346e-16
3.24609e-16
3.25387e-16
3.23738e-16
3.21609e-16
3.21845e-16
3.21293e-16
3.20453e-16
3.20393e-16
3.18954e-16
3.20072e-16
3.17044e-16
3.1713e-16
3.15797e-16
3.16006e-16
3.15649e-16
3.16338e-16
3.14332e-16
3.13282e-16
3.13444e-16
3.13273e-16
3.12806e-16
3.11192e-16
3.12161e-16
3.11766e-16
3.1094e-16
3.10858e-16
3.09072e-16
3.10052e-16
3.11044e-16
3.0971e-16
3.09553e-16
3.09487e-16
3.09693e-16
3.08127e-16
3.10476e-16
3.1081e-16
3.07605e-16
3.09989e-16
3.07944e-16
3.08144e-16
3.0849e-16
3.08749e-16
3.07837e-16
3.08016e-16
3.07083e-16
3.07281e-16
3.06479e-16
3.08824e-16
3.08013e-16
3.71208e-16
3.71085e-16
3.7085e-16
3.70465e-16
3.70134e-16
3.6989e-16
3.69206e-16
3.68849e-16
3.68225e-16
3.67991e-16
3.67186e-16
3.66763e-16
3.66189e-16
3.65725e-16
3.65439e-16
3.64502e-16
3.6382e-16
3.6315e-16
3.62976e-16
3.61794e-16
3.61077e-16
3.60916e-16
3.6076e-16
3.59617e-16
3.57689e-16
3.57892e-16
3.57816e-16
3.5726e-16
3.56686e-16
3.56661e-16
3.55352e-16
3.54141e-16
3.54052e-16
3.53793e-16
3.52694e-16
3.52229e-16
3.50201e-16
3.49283e-16
3.49579e-16
3.4948e-16
3.4864e-16
3.48158e-16
3.47569e-16
3.45883e-16
3.45381e-16
3.44684e-16
3.44266e-16
3.43193e-16
3.42697e-16
3.44291e-16
3.42552e-16
3.41655e-16
3.40343e-16
3.39329e-16
3.39258e-16
3.38889e-16
3.38227e-16
3.37761e-16
3.37345e-16
3.36335e-16
3.3522e-16
3.34199e-16
3.32756e-16
3.33408e-16
3.33671e-16
3.3218e-16
3.31033e-16
3.30784e-16
3.28659e-16
3.28818e-16
3.28715e-16
3.28426e-16
3.2839e-16
3.27705e-16
3.27744e-16
3.26562e-16
3.24669e-16
3.24326e-16
3.22353e-16
3.21623e-16
3.22086e-16
3.20812e-16
3.20197e-16
3.2078e-16
3.192e-16
3.19178e-16
3.16897e-16
3.16993e-16
3.14534e-16
3.15698e-16
3.1529e-16
3.15071e-16
3.13942e-16
3.12944e-16
3.13751e-16
3.13915e-16
3.13678e-16
3.11062e-16
3.11775e-16
3.11716e-16
3.11216e-16
3.11889e-16
3.10168e-16
3.11345e-16
3.08955e-16
3.10118e-16
3.0901e-16
3.08801e-16
3.09599e-16
3.08454e-16
3.11852e-16
3.09576e-16
3.08939e-16
3.10761e-16
3.08256e-16
3.08258e-16
3.08875e-16
3.10409e-16
3.0804e-16
3.07704e-16
3.08143e-16
3.07398e-16
3.07713e-16
3.08629e-16
3.07988e-16
3.70415e-16
3.703e-16
3.70123e-16
3.69933e-16
3.69453e-16
3.69025e-16
3.68592e-16
3.68185e-16
3.67215e-16
3.67162e-16
3.6643e-16
3.6609e-16
3.65785e-16
3.65107e-16
3.6473e-16
3.63962e-16
3.63337e-16
3.63222e-16
3.62414e-16
3.62192e-16
3.62001e-16
3.6053e-16
3.59884e-16
3.59308e-16
3.58315e-16
3.57923e-16
3.57534e-16
3.57168e-16
3.56058e-16
3.5566e-16
3.55177e-16
3.54347e-16
3.53873e-16
3.53852e-16
3.53395e-16
3.52069e-16
3.51277e-16
3.49378e-16
3.49624e-16
3.48801e-16
3.48081e-16
3.4771e-16
3.47018e-16
3.46029e-16
3.45364e-16
3.44722e-16
3.43775e-16
3.42765e-16
3.4259e-16
3.43258e-16
3.41693e-16
3.40815e-16
3.40998e-16
3.40453e-16
3.39342e-16
3.37943e-16
3.37979e-16
3.36473e-16
3.36573e-16
3.36497e-16
3.35127e-16
3.34323e-16
3.32666e-16
3.33176e-16
3.33482e-16
3.32045e-16
3.29539e-16
3.31174e-16
3.29652e-16
3.29717e-16
3.29005e-16
3.28974e-16
3.28094e-16
3.27146e-16
3.27102e-16
3.27813e-16
3.25223e-16
3.23057e-16
3.23166e-16
3.22001e-16
3.22579e-16
3.21236e-16
3.19966e-16
3.19484e-16
3.17548e-16
3.18693e-16
3.17681e-16
3.17724e-16
3.15304e-16
3.16068e-16
3.154e-16
3.13847e-16
3.12917e-16
3.13187e-16
3.13531e-16
3.13696e-16
3.12582e-16
3.11167e-16
3.1195e-16
3.11077e-16
3.10227e-16
3.11047e-16
3.10442e-16
3.10805e-16
3.10196e-16
3.10383e-16
3.09834e-16
3.08941e-16
3.0897e-16
3.08602e-16
3.11042e-16
3.09123e-16
3.09506e-16
3.09098e-16
3.07971e-16
3.08398e-16
3.07611e-16
3.08225e-16
3.08257e-16
3.07577e-16
3.07845e-16
3.0698e-16
3.07749e-16
3.09691e-16
3.0751e-16
3.69605e-16
3.69482e-16
3.69334e-16
3.69171e-16
3.68665e-16
3.68154e-16
3.67923e-16
3.67575e-16
3.66847e-16
3.666e-16
3.66002e-16
3.65534e-16
3.65529e-16
3.64556e-16
3.63683e-16
3.63226e-16
3.62303e-16
3.62273e-16
3.61725e-16
3.61808e-16
3.60861e-16
3.60091e-16
3.59147e-16
3.59093e-16
3.57591e-16
3.57401e-16
3.56933e-16
3.56387e-16
3.55278e-16
3.55475e-16
3.55297e-16
3.5425e-16
3.53552e-16
3.52967e-16
3.54304e-16
3.51971e-16
3.51255e-16
3.50296e-16
3.49523e-16
3.47757e-16
3.48194e-16
3.47728e-16
3.46903e-16
3.45923e-16
3.45321e-16
3.44511e-16
3.44465e-16
3.43606e-16
3.41863e-16
3.42376e-16
3.40989e-16
3.39646e-16
3.40368e-16
3.39389e-16
3.37837e-16
3.37706e-16
3.37019e-16
3.36128e-16
3.3586e-16
3.35797e-16
3.3467e-16
3.33768e-16
3.33636e-16
3.3266e-16
3.32737e-16
3.3254e-16
3.30085e-16
3.30397e-16
3.29043e-16
3.29227e-16
3.28933e-16
3.28934e-16
3.28164e-16
3.26404e-16
3.26355e-16
3.26723e-16
3.2523e-16
3.24291e-16
3.23667e-16
3.2353e-16
3.22385e-16
3.19653e-16
3.19343e-16
3.19465e-16
3.16535e-16
3.17907e-16
3.18319e-16
3.17498e-16
3.1374e-16
3.15289e-16
3.16212e-16
3.13802e-16
3.1246e-16
3.13125e-16
3.13667e-16
3.13468e-16
3.12125e-16
3.09799e-16
3.11113e-16
3.10665e-16
3.08506e-16
3.10157e-16
3.09782e-16
3.09547e-16
3.09609e-16
3.09377e-16
3.08997e-16
3.08756e-16
3.08462e-16
3.07744e-16
3.08736e-16
3.07799e-16
3.1015e-16
3.07602e-16
3.07379e-16
3.07746e-16
3.06528e-16
3.06593e-16
3.08002e-16
3.06682e-16
3.05823e-16
3.07154e-16
3.06973e-16
3.07327e-16
3.05503e-16
3.68768e-16
3.68643e-16
3.68493e-16
3.68263e-16
3.68031e-16
3.6771e-16
3.67268e-16
3.66822e-16
3.66324e-16
3.65849e-16
3.65465e-16
3.65047e-16
3.64796e-16
3.63827e-16
3.63305e-16
3.62921e-16
3.62508e-16
3.61808e-16
3.60633e-16
3.60593e-16
3.60555e-16
3.6087e-16
3.58874e-16
3.583e-16
3.57528e-16
3.5709e-16
3.56647e-16
3.56354e-16
3.56101e-16
3.56458e-16
3.53658e-16
3.53557e-16
3.53665e-16
3.53177e-16
3.53175e-16
3.51593e-16
3.51973e-16
3.50573e-16
3.49426e-16
3.48108e-16
3.4666e-16
3.48283e-16
3.4741e-16
3.45782e-16
3.45179e-16
3.43456e-16
3.44017e-16
3.42918e-16
3.41149e-16
3.41142e-16
3.40222e-16
3.39823e-16
3.38531e-16
3.38655e-16
3.38956e-16
3.37831e-16
3.37436e-16
3.37529e-16
3.36297e-16
3.35741e-16
3.35764e-16
3.33937e-16
3.34353e-16
3.33185e-16
3.3212e-16
3.32754e-16
3.2983e-16
3.30167e-16
3.29533e-16
3.28988e-16
3.28677e-16
3.28164e-16
3.26918e-16
3.2659e-16
3.24968e-16
3.26933e-16
3.2458e-16
3.25072e-16
3.23588e-16
3.23596e-16
3.21906e-16
3.18818e-16
3.17801e-16
3.19583e-16
3.17736e-16
3.17543e-16
3.16626e-16
3.16363e-16
3.14209e-16
3.1412e-16
3.13847e-16
3.14528e-16
3.12635e-16
3.12812e-16
3.12005e-16
3.12216e-16
3.12956e-16
3.1011e-16
3.09789e-16
3.10348e-16
3.09171e-16
3.10321e-16
3.09606e-16
3.08398e-16
3.09106e-16
3.08662e-16
3.08066e-16
3.08592e-16
3.07828e-16
3.07044e-16
3.07535e-16
3.07319e-16
3.08394e-16
3.08313e-16
3.06546e-16
3.08097e-16
3.08751e-16
3.0493e-16
3.07628e-16
3.06362e-16
3.06617e-16
3.06858e-16
3.05057e-16
3.05327e-16
3.09197e-16
3.67934e-16
3.67861e-16
3.67733e-16
3.67556e-16
3.67216e-16
3.66909e-16
3.66465e-16
3.66039e-16
3.65698e-16
3.65451e-16
3.64911e-16
3.64435e-16
3.63918e-16
3.63226e-16
3.62743e-16
3.62867e-16
3.61981e-16
3.60484e-16
3.59938e-16
3.60164e-16
3.61011e-16
3.59203e-16
3.57459e-16
3.58213e-16
3.57412e-16
3.57337e-16
3.57652e-16
3.55671e-16
3.54925e-16
3.54497e-16
3.52698e-16
3.52649e-16
3.52245e-16
3.51816e-16
3.49915e-16
3.51244e-16
3.51655e-16
3.49244e-16
3.49192e-16
3.49735e-16
3.48128e-16
3.47249e-16
3.46048e-16
3.45374e-16
3.44572e-16
3.43774e-16
3.45577e-16
3.42687e-16
3.40705e-16
3.39491e-16
3.41066e-16
3.40638e-16
3.39555e-16
3.37756e-16
3.3873e-16
3.37459e-16
3.37543e-16
3.37584e-16
3.36316e-16
3.35312e-16
3.34483e-16
3.34938e-16
3.33882e-16
3.33241e-16
3.32606e-16
3.32572e-16
3.29269e-16
3.30082e-16
3.29999e-16
3.28598e-16
3.28522e-16