/*--------------------------------*- C++ -*----------------------------------*\
| =========                 |                                                 |
| \\      /  F ield         | OpenFOAM: The Open Source CFD Toolbox           |
|  \\    /   O peration     | Version:  4.x                                   |
|   \\  /    A nd           | Web:      www.OpenFOAM.org                      |
|    \\/     M anipulation  |                                                 |
\*---------------------------------------------------------------------------*/
FoamFile
{
    version     2.0;
    format      ascii;
    class       volTensorField;
    location    "0";
    object      Q_D;
}
// * * * * * * * * * * * * * * * * * * * * * * * * * * * * * * * * * * * * * //

dimensions      [0 0 0 0 0 0 0];

internalField   nonuniform List<tensor> 
15625
(
(0.707107 0.707107 -9.66237e-17 0.5 -0.5 -0.707107 0.5 -0.5 0.707107)
(0.707107 0.707107 -1.54155e-14 0.214164 -0.214164 -0.953031 0.673894 -0.673894 0.302874)
(0.707107 0.707107 -1.57754e-14 0.129978 -0.129978 -0.982961 0.695058 -0.695058 0.183817)
(0.707107 0.707107 -1.86342e-14 0.0920007 -0.0920007 -0.9915 0.701096 -0.701096 0.130109)
(0.707107 0.707107 -1.38885e-14 0.0702039 -0.0702039 -0.995059 0.703613 -0.703613 0.0992834)
(0.707107 0.707107 -9.3474e-15 0.0558516 -0.0558516 -0.996876 0.704898 -0.704898 0.078986)
(0.707107 0.707107 -6.37021e-15 0.0456243 -0.0456243 -0.997916 0.705633 -0.705633 0.0645225)
(0.707107 0.707107 -4.44769e-15 0.0379953 -0.0379953 -0.998555 0.706085 -0.706085 0.0537335)
(0.707107 0.707107 -3.16737e-15 0.0321429 -0.0321429 -0.998966 0.706376 -0.706376 0.045457)
(0.707107 0.707107 -2.29026e-15 0.0275616 -0.0275616 -0.99924 0.706569 -0.706569 0.038978)
(0.707107 0.707107 -1.66843e-15 0.0239156 -0.0239156 -0.999428 0.706702 -0.706702 0.0338217)
(0.707107 0.707107 -1.21e-15 0.0209731 -0.0209731 -0.99956 0.706796 -0.706796 0.0296605)
(0.707107 0.707107 -8.68406e-16 0.018568 -0.018568 -0.999655 0.706863 -0.706863 0.0262591)
(0.707107 0.707107 -6.11035e-16 0.0165776 -0.0165776 -0.999725 0.706912 -0.706912 0.0234442)
(0.707107 0.707107 -4.17477e-16 0.0149126 -0.0149126 -0.999778 0.70695 -0.70695 0.0210897)
(0.707107 0.707107 -2.64959e-16 0.0135039 -0.0135039 -0.999818 0.706978 -0.706978 0.0190974)
(0.707107 0.707107 -1.46067e-16 0.0122996 -0.0122996 -0.999849 0.707 -0.707 0.0173943)
(0.707107 0.707107 -5.96092e-17 0.0112627 -0.0112627 -0.999873 0.707017 -0.707017 0.0159278)
(0.707107 0.707107 1.97682e-17 0.0103617 -0.0103617 -0.999893 0.707031 -0.707031 0.0146536)
(0.707107 0.707107 8.40491e-17 0.00957266 -0.00957266 -0.999908 0.707042 -0.707042 0.0135378)
(0.707107 0.707107 1.28395e-16 0.00887747 -0.00887747 -0.999921 0.707051 -0.707051 0.0125546)
(0.707107 0.707107 1.64909e-16 0.00826012 -0.00826012 -0.999932 0.707059 -0.707059 0.0116816)
(0.707107 0.707107 1.91727e-16 0.00771002 -0.00771002 -0.999941 0.707065 -0.707065 0.0109036)
(0.707107 0.707107 2.15818e-16 0.00721676 -0.00721676 -0.999948 0.70707 -0.70707 0.010206)
(0.707107 0.707107 2.38459e-16 0.00677204 -0.00677204 -0.999954 0.707074 -0.707074 0.00957711)
(0.707107 0.707107 2.62223e-16 0.00637002 -0.00637002 -0.999959 0.707078 -0.707078 0.00900857)
(0.707107 0.707107 2.8373e-16 0.00600432 -0.00600432 -0.999964 0.707081 -0.707081 0.00849138)
(0.707107 0.707107 2.99592e-16 0.00567119 -0.00567119 -0.999968 0.707084 -0.707084 0.00802028)
(0.707107 0.707107 3.13564e-16 0.00536677 -0.00536677 -0.999971 0.707086 -0.707086 0.00758976)
(0.707107 0.707107 3.23916e-16 0.00508698 -0.00508698 -0.999974 0.707088 -0.707088 0.00719407)
(0.707107 0.707107 3.29708e-16 0.00482815 -0.00482815 -0.999977 0.70709 -0.70709 0.00682803)
(0.707107 0.707107 3.33926e-16 0.00459055 -0.00459055 -0.999979 0.707092 -0.707092 0.00649201)
(0.707107 0.707107 3.41036e-16 0.00437039 -0.00437039 -0.999981 0.707093 -0.707093 0.00618067)
(0.707107 0.707107 3.43947e-16 0.00416536 -0.00416536 -0.999983 0.707095 -0.707095 0.00589071)
(0.707107 0.707107 3.52696e-16 0.00397562 -0.00397562 -0.999984 0.707096 -0.707096 0.00562237)
(0.707107 0.707107 3.67897e-16 0.00379798 -0.00379798 -0.999986 0.707097 -0.707097 0.00537115)
(0.707107 0.707107 3.72239e-16 0.00363227 -0.00363227 -0.999987 0.707097 -0.707097 0.0051368)
(0.707107 0.707107 3.74513e-16 0.00347778 -0.00347778 -0.999988 0.707098 -0.707098 0.00491832)
(0.707107 0.707107 3.76101e-16 0.00333229 -0.00333229 -0.999989 0.707099 -0.707099 0.00471258)
(0.707107 0.707107 3.73156e-16 0.00319584 -0.00319584 -0.99999 0.7071 -0.7071 0.00451959)
(0.707107 0.707107 3.6934e-16 0.00306741 -0.00306741 -0.999991 0.7071 -0.7071 0.00433797)
(0.707107 0.707107 3.70252e-16 0.00294608 -0.00294608 -0.999991 0.707101 -0.707101 0.00416639)
(0.707107 0.707107 3.7357e-16 0.00283249 -0.00283249 -0.999992 0.707101 -0.707101 0.00400575)
(0.707107 0.707107 3.68763e-16 0.00272479 -0.00272479 -0.999993 0.707102 -0.707102 0.00385343)
(0.707107 0.707107 3.66213e-16 0.00262219 -0.00262219 -0.999993 0.707102 -0.707102 0.00370834)
(0.707107 0.707107 3.7368e-16 0.00252543 -0.00252543 -0.999994 0.707102 -0.707102 0.00357149)
(0.707107 0.707107 3.73957e-16 0.00243422 -0.00243422 -0.999994 0.707103 -0.707103 0.0034425)
(0.707107 0.707107 3.62477e-16 0.00234692 -0.00234692 -0.999994 0.707103 -0.707103 0.00331905)
(0.707107 0.707107 3.49983e-16 0.00226382 -0.00226382 -0.999995 0.707103 -0.707103 0.00320153)
(0.707107 0.707107 3.42052e-16 0.0021852 -0.0021852 -0.999995 0.707103 -0.707103 0.00309034)
(0.707107 0.707107 3.40954e-16 0.00210996 -0.00210996 -0.999996 0.707104 -0.707104 0.00298393)
(0.707107 0.707107 3.35e-16 0.00203841 -0.00203841 -0.999996 0.707104 -0.707104 0.00288275)
(0.707107 0.707107 3.30141e-16 0.00196997 -0.00196997 -0.999996 0.707104 -0.707104 0.00278595)
(0.707107 0.707107 3.24202e-16 0.0019045 -0.0019045 -0.999996 0.707104 -0.707104 0.00269337)
(0.707107 0.707107 3.15748e-16 0.0018419 -0.0018419 -0.999997 0.707104 -0.707104 0.00260483)
(0.707107 0.707107 3.18241e-16 0.00178205 -0.00178205 -0.999997 0.707105 -0.707105 0.00252019)
(0.707107 0.707107 3.23102e-16 0.00172443 -0.00172443 -0.999997 0.707105 -0.707105 0.00243871)
(0.707107 0.707107 3.25081e-16 0.00166937 -0.00166937 -0.999997 0.707105 -0.707105 0.00236085)
(0.707107 0.707107 3.29174e-16 0.00161638 -0.00161638 -0.999997 0.707105 -0.707105 0.00228591)
(0.707107 0.707107 3.30703e-16 0.00156538 -0.00156538 -0.999998 0.707105 -0.707105 0.00221378)
(0.707107 0.707107 3.22278e-16 0.0015167 -0.0015167 -0.999998 0.707105 -0.707105 0.00214493)
(0.707107 0.707107 3.20161e-16 0.00146946 -0.00146946 -0.999998 0.707105 -0.707105 0.00207813)
(0.707107 0.707107 3.29132e-16 0.00142401 -0.00142401 -0.999998 0.707105 -0.707105 0.00201386)
(0.707107 0.707107 3.34733e-16 0.0013803 -0.0013803 -0.999998 0.707105 -0.707105 0.00195204)
(0.707107 0.707107 3.32473e-16 0.00133826 -0.00133826 -0.999998 0.707106 -0.707106 0.00189258)
(0.707107 0.707107 3.24851e-16 0.00129784 -0.00129784 -0.999998 0.707106 -0.707106 0.00183542)
(0.707107 0.707107 3.15297e-16 0.00125823 -0.00125823 -0.999998 0.707106 -0.707106 0.00177941)
(0.707107 0.707107 3.08943e-16 0.00122016 -0.00122016 -0.999999 0.707106 -0.707106 0.00172557)
(0.707107 0.707107 3.06002e-16 0.00118358 -0.00118358 -0.999999 0.707106 -0.707106 0.00167383)
(0.707107 0.707107 3.07242e-16 0.00114771 -0.00114771 -0.999999 0.707106 -0.707106 0.0016231)
(0.707107 0.707107 3.06713e-16 0.00111325 -0.00111325 -0.999999 0.707106 -0.707106 0.00157437)
(0.707107 0.707107 2.94684e-16 0.00107981 -0.00107981 -0.999999 0.707106 -0.707106 0.00152708)
(0.707107 0.707107 2.92216e-16 0.00104735 -0.00104735 -0.999999 0.707106 -0.707106 0.00148117)
(0.707107 0.707107 2.88621e-16 0.0010162 -0.0010162 -0.999999 0.707106 -0.707106 0.00143712)
(0.707107 0.707107 2.7307e-16 0.000985617 -0.000985617 -0.999999 0.707106 -0.707106 0.00139387)
(0.707107 0.707107 2.71011e-16 0.000955593 -0.000955593 -0.999999 0.707106 -0.707106 0.00135141)
(0.707107 0.707107 2.73078e-16 0.000926796 -0.000926796 -0.999999 0.707106 -0.707106 0.00131069)
(0.707107 0.707107 2.80028e-16 0.000898513 -0.000898513 -0.999999 0.707106 -0.707106 0.00127069)
(0.707107 0.707107 2.87771e-16 0.000871063 -0.000871063 -0.999999 0.707106 -0.707106 0.00123187)
(0.707107 0.707107 2.77119e-16 0.000844765 -0.000844765 -0.999999 0.707106 -0.707106 0.00119468)
(0.707107 0.707107 2.67675e-16 0.000818589 -0.000818589 -0.999999 0.707106 -0.707106 0.00115766)
(0.707107 0.707107 2.60167e-16 0.000793189 -0.000793189 -0.999999 0.707106 -0.707106 0.00112174)
(0.707107 0.707107 2.5422e-16 0.000768548 -0.000768548 -0.999999 0.707106 -0.707106 0.00108689)
(0.707107 0.707107 2.52063e-16 0.000743996 -0.000743996 -0.999999 0.707106 -0.707106 0.00105217)
(0.707107 0.707107 2.42239e-16 0.000720496 -0.000720496 -0.999999 0.707106 -0.707106 0.00101893)
(0.707107 0.707107 2.35551e-16 0.000697704 -0.000697704 -1 0.707106 -0.707106 0.000986702)
(0.707107 0.707107 2.33558e-16 0.000674968 -0.000674968 -1 0.707106 -0.707106 0.00095455)
(0.707107 0.707107 2.35026e-16 0.000652602 -0.000652602 -1 0.707106 -0.707106 0.000922919)
(0.707107 0.707107 2.28085e-16 0.000630907 -0.000630907 -1 0.707106 -0.707106 0.000892237)
(0.707107 0.707107 2.11093e-16 0.000609559 -0.000609559 -1 0.707107 -0.707107 0.000862047)
(0.707107 0.707107 1.93934e-16 0.000588854 -0.000588854 -1 0.707107 -0.707107 0.000832766)
(0.707107 0.707107 1.78759e-16 0.000568479 -0.000568479 -1 0.707107 -0.707107 0.000803951)
(0.707107 0.707107 1.73602e-16 0.000548114 -0.000548114 -1 0.707107 -0.707107 0.000775151)
(0.707107 0.707107 1.68627e-16 0.000528666 -0.000528666 -1 0.707107 -0.707107 0.000747647)
(0.707107 0.707107 1.63653e-16 0.000509219 -0.000509219 -1 0.707107 -0.707107 0.000720144)
(0.707107 0.707107 1.68662e-16 0.000489774 -0.000489774 -1 0.707107 -0.707107 0.000692645)
(0.707107 0.707107 1.7582e-16 0.000471205 -0.000471205 -1 0.707107 -0.707107 0.000666385)
(0.707107 0.707107 1.75439e-16 0.00045263 -0.00045263 -1 0.707107 -0.707107 0.000640115)
(0.707107 0.707107 1.6124e-16 0.000434325 -0.000434325 -1 0.707107 -0.707107 0.000614228)
(0.707107 0.707107 1.45884e-16 0.000416293 -0.000416293 -1 0.707107 -0.707107 0.000588728)
(0.707107 0.707107 1.31668e-16 0.000398526 -0.000398526 -1 0.707107 -0.707107 0.000563601)
(0.707107 0.707107 1.22229e-16 0.000381017 -0.000381017 -1 0.707107 -0.707107 0.00053884)
(0.707107 0.707107 1.1525e-16 0.000363479 -0.000363479 -1 0.707107 -0.707107 0.000514036)
(0.707107 0.707107 9.81193e-17 0.00034647 -0.00034647 -1 0.707107 -0.707107 0.000489982)
(0.707107 0.707107 8.91801e-17 0.000329429 -0.000329429 -1 0.707107 -0.707107 0.000465883)
(0.707107 0.707107 8.6798e-17 0.000312351 -0.000312351 -1 0.707107 -0.707107 0.000441731)
(0.707107 0.707107 7.31946e-17 0.000295782 -0.000295782 -1 0.707107 -0.707107 0.000418299)
(0.707107 0.707107 6.53113e-17 0.000279444 -0.000279444 -1 0.707107 -0.707107 0.000395194)
(0.707107 0.707107 6.18627e-17 0.000263063 -0.000263063 -1 0.707107 -0.707107 0.000372027)
(0.707107 0.707107 5.02813e-17 0.000246635 -0.000246635 -1 0.707107 -0.707107 0.000348795)
(0.707107 0.707107 4.34455e-17 0.000230429 -0.000230429 -1 0.707107 -0.707107 0.000325876)
(0.707107 0.707107 4.19409e-17 0.00021444 -0.00021444 -1 0.707107 -0.707107 0.000303264)
(0.707107 0.707107 4.83048e-17 0.00019814 -0.00019814 -1 0.707107 -0.707107 0.000280212)
(0.707107 0.707107 4.42981e-17 0.000182309 -0.000182309 -1 0.707107 -0.707107 0.000257824)
(0.707107 0.707107 3.38481e-17 0.000166688 -0.000166688 -1 0.707107 -0.707107 0.000235733)
(0.707107 0.707107 2.58617e-17 0.00015075 -0.00015075 -1 0.707107 -0.707107 0.000213193)
(0.707107 0.707107 1.83396e-17 0.000134761 -0.000134761 -1 0.707107 -0.707107 0.00019058)
(0.707107 0.707107 3.05156e-17 0.00011897 -0.00011897 -1 0.707107 -0.707107 0.000168249)
(0.707107 0.707107 4.35256e-17 0.000103125 -0.000103125 -1 0.707107 -0.707107 0.000145841)
(0.707107 0.707107 4.24204e-17 8.7471e-05 -8.7471e-05 -1 0.707107 -0.707107 0.000123703)
(0.707107 0.707107 4.17826e-17 7.17599e-05 -7.17599e-05 -1 0.707107 -0.707107 0.000101484)
(0.707107 0.707107 3.33768e-17 5.57381e-05 -5.57381e-05 -1 0.707107 -0.707107 7.88255e-05)
(0.707107 0.707107 2.5667e-17 3.99057e-05 -3.99057e-05 -1 0.707107 -0.707107 5.64351e-05)
(0.707107 0.707107 1.09296e-17 2.4011e-05 -2.4011e-05 -1 0.707107 -0.707107 3.39567e-05)
(0.707107 0.707107 4.2757e-18 8.05481e-06 -8.05481e-06 -1 0.707107 -0.707107 1.13912e-05)
(0.707107 0.707107 1.54329e-14 0.673894 -0.673894 -0.302874 0.214164 -0.214164 0.953031)
(0.707107 0.707107 1.06312e-16 0.5 -0.5 -0.707107 0.5 -0.5 0.707107)
(0.707107 0.707107 4.68193e-14 0.35467 -0.35467 -0.865111 0.611726 -0.611726 0.50158)
(0.707107 0.707107 2.44965e-14 0.262576 -0.262576 -0.928498 0.656547 -0.656547 0.371338)
(0.707107 0.707107 9.03654e-15 0.20288 -0.20288 -0.957956 0.677377 -0.677377 0.286916)
(0.707107 0.707107 2.5034e-15 0.161769 -0.161769 -0.973479 0.688354 -0.688354 0.228775)
(0.707107 0.707107 -1.90793e-16 0.13205 -0.13205 -0.982408 0.694667 -0.694667 0.186747)
(0.707107 0.707107 -1.1278e-15 0.109825 -0.109825 -0.987865 0.698526 -0.698526 0.155316)
(0.707107 0.707107 -1.32231e-15 0.0927928 -0.0927928 -0.991352 0.700992 -0.700992 0.131229)
(0.707107 0.707107 -1.24357e-15 0.0794859 -0.0794859 -0.993662 0.702625 -0.702625 0.11241)
(0.707107 0.707107 -1.08084e-15 0.0689193 -0.0689193 -0.995239 0.70374 -0.70374 0.0974666)
(0.707107 0.707107 -8.97742e-16 0.0604044 -0.0604044 -0.996345 0.704522 -0.704522 0.0854247)
(0.707107 0.707107 -7.27461e-16 0.0534497 -0.0534497 -0.997139 0.705084 -0.705084 0.0755893)
(0.707107 0.707107 -5.82858e-16 0.0476975 -0.0476975 -0.997722 0.705496 -0.705496 0.0674544)
(0.707107 0.707107 -4.67732e-16 0.0428853 -0.0428853 -0.998159 0.705805 -0.705805 0.0606489)
(0.707107 0.707107 -3.70042e-16 0.038815 -0.038815 -0.998492 0.706041 -0.706041 0.0548927)
(0.707107 0.707107 -2.88613e-16 0.035338 -0.035338 -0.99875 0.706223 -0.706223 0.0499754)
(0.707107 0.707107 -2.33791e-16 0.0323421 -0.0323421 -0.998953 0.706367 -0.706367 0.0457386)
(0.707107 0.707107 -1.71786e-16 0.0297402 -0.0297402 -0.999115 0.706481 -0.706481 0.042059)
(0.707107 0.707107 -1.16602e-16 0.0274619 -0.0274619 -0.999246 0.706573 -0.706573 0.038837)
(0.707107 0.707107 -8.10019e-17 0.0254536 -0.0254536 -0.999352 0.706649 -0.706649 0.0359969)
(0.707107 0.707107 -4.26145e-17 0.0236738 -0.0236738 -0.999439 0.70671 -0.70671 0.0334798)
(0.707107 0.707107 -1.20945e-17 0.0220853 -0.0220853 -0.999512 0.706762 -0.706762 0.0312334)
(0.707107 0.707107 4.1147e-18 0.0206613 -0.0206613 -0.999573 0.706805 -0.706805 0.0292195)
(0.707107 0.707107 2.50083e-17 0.0193801 -0.0193801 -0.999624 0.706841 -0.706841 0.0274075)
(0.707107 0.707107 5.15494e-17 0.0182203 -0.0182203 -0.999668 0.706872 -0.706872 0.0257674)
(0.707107 0.707107 7.59574e-17 0.0171663 -0.0171663 -0.999705 0.706898 -0.706898 0.0242768)
(0.707107 0.707107 9.61415e-17 0.0162057 -0.0162057 -0.999737 0.706921 -0.706921 0.0229183)
(0.707107 0.707107 1.12405e-16 0.0153271 -0.0153271 -0.999765 0.706941 -0.706941 0.0216758)
(0.707107 0.707107 1.20569e-16 0.0145208 -0.0145208 -0.999789 0.706958 -0.706958 0.0205355)
(0.707107 0.707107 1.22366e-16 0.0137784 -0.0137784 -0.99981 0.706973 -0.706973 0.0194856)
(0.707107 0.707107 1.31003e-16 0.0130939 -0.0130939 -0.999829 0.706986 -0.706986 0.0185175)
(0.707107 0.707107 1.49921e-16 0.0124598 -0.0124598 -0.999845 0.706997 -0.706997 0.0176208)
(0.707107 0.707107 1.56969e-16 0.0118714 -0.0118714 -0.999859 0.707007 -0.707007 0.0167887)
(0.707107 0.707107 1.55063e-16 0.0113248 -0.0113248 -0.999872 0.707016 -0.707016 0.0160157)
(0.707107 0.707107 1.69015e-16 0.0108147 -0.0108147 -0.999883 0.707024 -0.707024 0.0152944)
(0.707107 0.707107 1.82311e-16 0.0103392 -0.0103392 -0.999893 0.707031 -0.707031 0.0146218)
(0.707107 0.707107 1.84877e-16 0.00989426 -0.00989426 -0.999902 0.707038 -0.707038 0.0139926)
(0.707107 0.707107 1.84331e-16 0.00947639 -0.00947639 -0.99991 0.707043 -0.707043 0.0134016)
(0.707107 0.707107 1.86734e-16 0.00908484 -0.00908484 -0.999917 0.707048 -0.707048 0.0128479)
(0.707107 0.707107 1.86003e-16 0.00871699 -0.00871699 -0.999924 0.707053 -0.707053 0.0123277)
(0.707107 0.707107 1.89866e-16 0.00836979 -0.00836979 -0.99993 0.707057 -0.707057 0.0118367)
(0.707107 0.707107 2.00015e-16 0.00804235 -0.00804235 -0.999935 0.707061 -0.707061 0.0113736)
(0.707107 0.707107 1.97666e-16 0.00773376 -0.00773376 -0.99994 0.707064 -0.707064 0.0109372)
(0.707107 0.707107 1.96424e-16 0.00744125 -0.00744125 -0.999945 0.707068 -0.707068 0.0105235)
(0.707107 0.707107 2.00973e-16 0.00716418 -0.00716418 -0.999949 0.70707 -0.70707 0.0101317)
(0.707107 0.707107 2.05583e-16 0.00690195 -0.00690195 -0.999952 0.707073 -0.707073 0.00976083)
(0.707107 0.707107 2.01576e-16 0.00665273 -0.00665273 -0.999956 0.707075 -0.707075 0.00940838)
(0.707107 0.707107 1.92711e-16 0.00641533 -0.00641533 -0.999959 0.707078 -0.707078 0.00907264)
(0.707107 0.707107 1.89905e-16 0.00619 -0.00619 -0.999962 0.70708 -0.70708 0.00875398)
(0.707107 0.707107 1.92414e-16 0.00597504 -0.00597504 -0.999964 0.707082 -0.707082 0.00844999)
(0.707107 0.707107 1.91886e-16 0.00577008 -0.00577008 -0.999967 0.707083 -0.707083 0.00816013)
(0.707107 0.707107 1.9028e-16 0.00557472 -0.00557472 -0.999969 0.707085 -0.707085 0.00788385)
(0.707107 0.707107 1.9049e-16 0.00538811 -0.00538811 -0.999971 0.707086 -0.707086 0.00761994)
(0.707107 0.707107 1.90168e-16 0.00520938 -0.00520938 -0.999973 0.707088 -0.707088 0.00736718)
(0.707107 0.707107 1.94658e-16 0.00503823 -0.00503823 -0.999975 0.707089 -0.707089 0.00712513)
(0.707107 0.707107 2.01347e-16 0.00487441 -0.00487441 -0.999976 0.70709 -0.70709 0.00689346)
(0.707107 0.707107 2.08039e-16 0.00471668 -0.00471668 -0.999978 0.707091 -0.707091 0.0066704)
(0.707107 0.707107 2.05429e-16 0.00456577 -0.00456577 -0.999979 0.707092 -0.707092 0.00645697)
(0.707107 0.707107 2.02739e-16 0.00442149 -0.00442149 -0.99998 0.707093 -0.707093 0.00625293)
(0.707107 0.707107 2.01012e-16 0.00428216 -0.00428216 -0.999982 0.707094 -0.707094 0.00605589)
(0.707107 0.707107 2.06369e-16 0.00414761 -0.00414761 -0.999983 0.707095 -0.707095 0.00586561)
(0.707107 0.707107 2.14055e-16 0.00401863 -0.00401863 -0.999984 0.707095 -0.707095 0.0056832)
(0.707107 0.707107 2.12595e-16 0.00389455 -0.00389455 -0.999985 0.707096 -0.707096 0.00550772)
(0.707107 0.707107 2.12698e-16 0.00377435 -0.00377435 -0.999986 0.707097 -0.707097 0.00533774)
(0.707107 0.707107 2.16454e-16 0.0036583 -0.0036583 -0.999987 0.707097 -0.707097 0.00517361)
(0.707107 0.707107 2.07132e-16 0.00354676 -0.00354676 -0.999987 0.707098 -0.707098 0.00501588)
(0.707107 0.707107 1.95309e-16 0.00343917 -0.00343917 -0.999988 0.707098 -0.707098 0.00486372)
(0.707107 0.707107 1.95984e-16 0.00333447 -0.00333447 -0.999989 0.707099 -0.707099 0.00471565)
(0.707107 0.707107 2.02706e-16 0.00323348 -0.00323348 -0.99999 0.707099 -0.707099 0.00457284)
(0.707107 0.707107 2.02425e-16 0.00313568 -0.00313568 -0.99999 0.7071 -0.7071 0.00443452)
(0.707107 0.707107 1.84788e-16 0.00304049 -0.00304049 -0.999991 0.7071 -0.7071 0.0042999)
(0.707107 0.707107 1.85451e-16 0.00294876 -0.00294876 -0.999991 0.707101 -0.707101 0.00417017)
(0.707107 0.707107 1.90572e-16 0.0028595 -0.0028595 -0.999992 0.707101 -0.707101 0.00404394)
(0.707107 0.707107 1.79762e-16 0.00277263 -0.00277263 -0.999992 0.707101 -0.707101 0.00392109)
(0.707107 0.707107 1.78845e-16 0.00268856 -0.00268856 -0.999993 0.707102 -0.707102 0.00380219)
(0.707107 0.707107 1.78752e-16 0.00260675 -0.00260675 -0.999993 0.707102 -0.707102 0.0036865)
(0.707107 0.707107 1.81743e-16 0.00252715 -0.00252715 -0.999994 0.707102 -0.707102 0.00357393)
(0.707107 0.707107 1.93558e-16 0.00244971 -0.00244971 -0.999994 0.707103 -0.707103 0.00346441)
(0.707107 0.707107 1.87907e-16 0.00237438 -0.00237438 -0.999994 0.707103 -0.707103 0.00335789)
(0.707107 0.707107 1.82937e-16 0.00230069 -0.00230069 -0.999995 0.707103 -0.707103 0.00325367)
(0.707107 0.707107 1.81603e-16 0.002229 -0.002229 -0.999995 0.707103 -0.707103 0.00315229)
(0.707107 0.707107 1.74646e-16 0.00215928 -0.00215928 -0.999995 0.707103 -0.707103 0.00305369)
(0.707107 0.707107 1.74888e-16 0.00209066 -0.00209066 -0.999996 0.707104 -0.707104 0.00295665)
(0.707107 0.707107 1.68964e-16 0.00202393 -0.00202393 -0.999996 0.707104 -0.707104 0.00286227)
(0.707107 0.707107 1.53698e-16 0.00195863 -0.00195863 -0.999996 0.707104 -0.707104 0.00276992)
(0.707107 0.707107 1.54433e-16 0.00189473 -0.00189473 -0.999996 0.707104 -0.707104 0.00267956)
(0.707107 0.707107 1.6595e-16 0.00183259 -0.00183259 -0.999997 0.707104 -0.707104 0.00259168)
(0.707107 0.707107 1.61667e-16 0.0017714 -0.0017714 -0.999997 0.707105 -0.707105 0.00250514)
(0.707107 0.707107 1.48748e-16 0.00171116 -0.00171116 -0.999997 0.707105 -0.707105 0.00241994)
(0.707107 0.707107 1.33521e-16 0.00165067 -0.00165067 -0.999997 0.707105 -0.707105 0.00233441)
(0.707107 0.707107 1.20211e-16 0.00159521 -0.00159521 -0.999997 0.707105 -0.707105 0.00225596)
(0.707107 0.707107 1.18607e-16 0.00153874 -0.00153874 -0.999998 0.707105 -0.707105 0.00217611)
(0.707107 0.707107 1.19607e-16 0.00148305 -0.00148305 -0.999998 0.707105 -0.707105 0.00209735)
(0.707107 0.707107 1.16288e-16 0.00142823 -0.00142823 -0.999998 0.707105 -0.707105 0.00201982)
(0.707107 0.707107 1.14613e-16 0.00137416 -0.00137416 -0.999998 0.707105 -0.707105 0.00194335)
(0.707107 0.707107 1.11899e-16 0.00132092 -0.00132092 -0.999998 0.707106 -0.707106 0.00186806)
(0.707107 0.707107 1.18705e-16 0.00126839 -0.00126839 -0.999998 0.707106 -0.707106 0.00179377)
(0.707107 0.707107 1.14932e-16 0.00122021 -0.00122021 -0.999999 0.707106 -0.707106 0.00172563)
(0.707107 0.707107 8.9928e-17 0.00116561 -0.00116561 -0.999999 0.707106 -0.707106 0.00164843)
(0.707107 0.707107 7.88914e-17 0.00111528 -0.00111528 -0.999999 0.707106 -0.707106 0.00157724)
(0.707107 0.707107 7.60646e-17 0.00106917 -0.00106917 -0.999999 0.707106 -0.707106 0.00151204)
(0.707107 0.707107 5.81002e-17 0.00102022 -0.00102022 -0.999999 0.707106 -0.707106 0.0014428)
(0.707107 0.707107 4.7455e-17 0.000968499 -0.000968499 -0.999999 0.707106 -0.707106 0.00136966)
(0.707107 0.707107 5.23144e-17 0.000920875 -0.000920875 -0.999999 0.707106 -0.707106 0.00130231)
(0.707107 0.707107 4.58109e-17 0.000877327 -0.000877327 -0.999999 0.707106 -0.707106 0.00124073)
(0.707107 0.707107 3.41197e-17 0.000830978 -0.000830978 -0.999999 0.707106 -0.707106 0.00117518)
(0.707107 0.707107 2.57673e-17 0.000781897 -0.000781897 -0.999999 0.707106 -0.707106 0.00110577)
(0.707107 0.707107 2.44845e-17 0.000736778 -0.000736778 -0.999999 0.707106 -0.707106 0.00104196)
(0.707107 0.707107 1.97161e-17 0.000692283 -0.000692283 -1 0.707106 -0.707106 0.000979036)
(0.707107 0.707107 9.32413e-18 0.00064505 -0.00064505 -1 0.707106 -0.707106 0.000912238)
(0.707107 0.707107 1.12268e-17 0.00059844 -0.00059844 -1 0.707107 -0.707107 0.000846323)
(0.707107 0.707107 1.89477e-17 0.000555655 -0.000555655 -1 0.707107 -0.707107 0.000785815)
(0.707107 0.707107 1.57857e-17 0.000510229 -0.000510229 -1 0.707107 -0.707107 0.000721573)
(0.707107 0.707107 1.22071e-17 0.000465322 -0.000465322 -1 0.707107 -0.707107 0.000658065)
(0.707107 0.707107 1.86926e-18 0.000424208 -0.000424208 -1 0.707107 -0.707107 0.000599921)
(0.707107 0.707107 -5.60181e-18 0.000377249 -0.000377249 -1 0.707107 -0.707107 0.00053351)
(0.707107 0.707107 9.01439e-18 0.000330863 -0.000330863 -1 0.707107 -0.707107 0.000467911)
(0.707107 0.707107 2.56881e-17 0.000288164 -0.000288164 -1 0.707107 -0.707107 0.000407525)
(0.707107 0.707107 2.36726e-17 0.000245993 -0.000245993 -1 0.707107 -0.707107 0.000347887)
(0.707107 0.707107 2.17184e-17 0.000201222 -0.000201222 -1 0.707107 -0.707107 0.000284571)
(0.707107 0.707107 1.3256e-17 0.000156977 -0.000156977 -1 0.707107 -0.707107 0.000221999)
(0.707107 0.707107 1.13468e-17 0.000113246 -0.000113246 -1 0.707107 -0.707107 0.000160155)
(0.707107 0.707107 1.43878e-17 6.69848e-05 -6.69848e-05 -1 0.707107 -0.707107 9.47308e-05)
(0.707107 0.707107 7.69099e-18 2.12308e-05 -2.12308e-05 -1 0.707107 -0.707107 3.00249e-05)
(0.707107 0.707107 1.57783e-14 0.695058 -0.695058 -0.183817 0.129978 -0.129978 0.982961)
(0.707107 0.707107 -4.66753e-14 0.611726 -0.611726 -0.50158 0.35467 -0.35467 0.865111)
(0.707107 0.707107 3.50655e-17 0.5 -0.5 -0.707107 0.5 -0.5 0.707107)
(0.707107 0.707107 1.25766e-14 0.400807 -0.400807 -0.823837 0.582541 -0.582541 0.566827)
(0.707107 0.707107 1.06662e-14 0.323372 -0.323372 -0.889304 0.628833 -0.628833 0.457317)
(0.707107 0.707107 6.42346e-15 0.264296 -0.264296 -0.927521 0.655857 -0.655857 0.37377)
(0.707107 0.707107 2.98957e-15 0.219063 -0.219063 -0.950801 0.672318 -0.672318 0.309802)
(0.707107 0.707107 8.72469e-16 0.184099 -0.184099 -0.965513 0.682721 -0.682721 0.260356)
(0.707107 0.707107 -2.86882e-16 0.156756 -0.156756 -0.975118 0.689513 -0.689513 0.221686)
(0.707107 0.707107 -8.90252e-16 0.135098 -0.135098 -0.981579 0.694081 -0.694081 0.191057)
(0.707107 0.707107 -1.17769e-15 0.11772 -0.11772 -0.986045 0.697239 -0.697239 0.166481)
(0.707107 0.707107 -1.2831e-15 0.103598 -0.103598 -0.989209 0.699477 -0.699477 0.14651)
(0.707107 0.707107 -1.29477e-15 0.0919788 -0.0919788 -0.991504 0.701099 -0.701099 0.130078)
(0.707107 0.707107 -1.26152e-15 0.0823094 -0.0823094 -0.993202 0.7023 -0.7023 0.116403)
(0.707107 0.707107 -1.19128e-15 0.0741748 -0.0741748 -0.994483 0.703206 -0.703206 0.104899)
(0.707107 0.707107 -1.13001e-15 0.0672623 -0.0672623 -0.995465 0.7039 -0.7039 0.0951233)
(0.707107 0.707107 -1.07832e-15 0.0613323 -0.0613323 -0.996231 0.704442 -0.704442 0.086737)
(0.707107 0.707107 -1.02687e-15 0.0562034 -0.0562034 -0.996836 0.70487 -0.70487 0.0794836)
(0.707107 0.707107 -9.60792e-16 0.0517342 -0.0517342 -0.99732 0.705212 -0.705212 0.0731633)
(0.707107 0.707107 -8.96831e-16 0.0478106 -0.0478106 -0.997712 0.705489 -0.705489 0.0676144)
(0.707107 0.707107 -8.51981e-16 0.0443432 -0.0443432 -0.998032 0.705715 -0.705715 0.0627108)
(0.707107 0.707107 -7.99459e-16 0.0412625 -0.0412625 -0.998296 0.705902 -0.705902 0.0583539)
(0.707107 0.707107 -7.4412e-16 0.0385103 -0.0385103 -0.998516 0.706057 -0.706057 0.0544618)
(0.707107 0.707107 -7.14978e-16 0.0360362 -0.0360362 -0.998701 0.706188 -0.706188 0.0509629)
(0.707107 0.707107 -6.74172e-16 0.0338056 -0.0338056 -0.998857 0.706298 -0.706298 0.0478083)
(0.707107 0.707107 -6.23643e-16 0.0317897 -0.0317897 -0.998989 0.706392 -0.706392 0.0449574)
(0.707107 0.707107 -5.99231e-16 0.0299601 -0.0299601 -0.999102 0.706472 -0.706472 0.04237)
(0.707107 0.707107 -5.72945e-16 0.0282834 -0.0282834 -0.9992 0.706541 -0.706541 0.0399988)
(0.707107 0.707107 -5.37776e-16 0.0267389 -0.0267389 -0.999285 0.706601 -0.706601 0.0378146)
(0.707107 0.707107 -5.06463e-16 0.0253354 -0.0253354 -0.999358 0.706653 -0.706653 0.0358297)
(0.707107 0.707107 -4.96915e-16 0.024038 -0.024038 -0.999422 0.706698 -0.706698 0.0339949)
(0.707107 0.707107 -4.84986e-16 0.0228314 -0.0228314 -0.999479 0.706738 -0.706738 0.0322885)
(0.707107 0.707107 -4.37918e-16 0.0217264 -0.0217264 -0.999528 0.706773 -0.706773 0.0307257)
(0.707107 0.707107 -4.05166e-16 0.0207007 -0.0207007 -0.999571 0.706804 -0.706804 0.0292752)
(0.707107 0.707107 -4.07521e-16 0.0197423 -0.0197423 -0.99961 0.706831 -0.706831 0.0279198)
(0.707107 0.707107 -3.8274e-16 0.0188469 -0.0188469 -0.999645 0.706856 -0.706856 0.0266535)
(0.707107 0.707107 -3.55958e-16 0.0180111 -0.0180111 -0.999676 0.706877 -0.706877 0.0254716)
(0.707107 0.707107 -3.60786e-16 0.0172321 -0.0172321 -0.999703 0.706897 -0.706897 0.0243699)
(0.707107 0.707107 -3.60271e-16 0.0164992 -0.0164992 -0.999728 0.706914 -0.706914 0.0233334)
(0.707107 0.707107 -3.37657e-16 0.0158104 -0.0158104 -0.99975 0.70693 -0.70693 0.0223592)
(0.707107 0.707107 -3.09263e-16 0.0151704 -0.0151704 -0.99977 0.706944 -0.706944 0.0214542)
(0.707107 0.707107 -2.90365e-16 0.014563 -0.014563 -0.999788 0.706957 -0.706957 0.0205952)
(0.707107 0.707107 -2.69873e-16 0.0139795 -0.0139795 -0.999805 0.706969 -0.706969 0.01977)
(0.707107 0.707107 -2.63701e-16 0.0134397 -0.0134397 -0.999819 0.706979 -0.706979 0.0190065)
(0.707107 0.707107 -2.64258e-16 0.0129347 -0.0129347 -0.999833 0.706988 -0.706988 0.0182924)
(0.707107 0.707107 -2.62286e-16 0.0124428 -0.0124428 -0.999845 0.706997 -0.706997 0.0175967)
(0.707107 0.707107 -2.49447e-16 0.0119767 -0.0119767 -0.999857 0.707005 -0.707005 0.0169377)
(0.707107 0.707107 -2.46144e-16 0.0115488 -0.0115488 -0.999867 0.707012 -0.707012 0.0163325)
(0.707107 0.707107 -2.57422e-16 0.0111312 -0.0111312 -0.999876 0.707019 -0.707019 0.015742)
(0.707107 0.707107 -2.56004e-16 0.0107301 -0.0107301 -0.999885 0.707025 -0.707025 0.0151747)
(0.707107 0.707107 -2.52622e-16 0.0103576 -0.0103576 -0.999893 0.707031 -0.707031 0.0146479)
(0.707107 0.707107 -2.45454e-16 0.0099999 -0.0099999 -0.9999 0.707036 -0.707036 0.014142)
(0.707107 0.707107 -2.49847e-16 0.00965663 -0.00965663 -0.999907 0.707041 -0.707041 0.0136565)
(0.707107 0.707107 -2.42424e-16 0.00932708 -0.00932708 -0.999913 0.707045 -0.707045 0.0131905)
(0.707107 0.707107 -2.40446e-16 0.00901698 -0.00901698 -0.999919 0.707049 -0.707049 0.0127519)
(0.707107 0.707107 -2.34038e-16 0.00871959 -0.00871959 -0.999924 0.707053 -0.707053 0.0123314)
(0.707107 0.707107 -2.12548e-16 0.00842844 -0.00842844 -0.999929 0.707057 -0.707057 0.0119196)
(0.707107 0.707107 -2.13071e-16 0.0081552 -0.0081552 -0.999933 0.70706 -0.70706 0.0115332)
(0.707107 0.707107 -2.15852e-16 0.00789345 -0.00789345 -0.999938 0.707063 -0.707063 0.011163)
(0.707107 0.707107 -2.25013e-16 0.00763699 -0.00763699 -0.999942 0.707066 -0.707066 0.0108003)
(0.707107 0.707107 -2.26807e-16 0.00739132 -0.00739132 -0.999945 0.707068 -0.707068 0.0104529)
(0.707107 0.707107 -2.12208e-16 0.00715618 -0.00715618 -0.999949 0.707071 -0.707071 0.0101204)
(0.707107 0.707107 -2.01313e-16 0.0069369 -0.0069369 -0.999952 0.707073 -0.707073 0.00981026)
(0.707107 0.707107 -2.04637e-16 0.00671619 -0.00671619 -0.999955 0.707075 -0.707075 0.00949813)
(0.707107 0.707107 -2.05605e-16 0.00650518 -0.00650518 -0.999958 0.707077 -0.707077 0.00919971)