/*--------------------------------*- C++ -*----------------------------------*\
  =========                 |
  \\      /  F ield         | OpenFOAM: The Open Source CFD Toolbox
   \\    /   O peration     | Website:  https://openfoam.org
    \\  /    A nd           | Version:  6
     \\/     M anipulation  |
\*---------------------------------------------------------------------------*/
FoamFile
{
    version     2.0;
    format      ascii;
    class       volSymmTensorField;
    location    "98.96";
    object      turbulenceProperties:R;
}
// * * * * * * * * * * * * * * * * * * * * * * * * * * * * * * * * * * * * * //

dimensions      [0 2 -2 0 0 0 0];

internalField   nonuniform List<symmTensor> 
15625
(
(1.9982023896003692e-07 5.218579115434713e-12 5.21857911543489e-12 1.1096991495174315e-10 -6.66159382361628e-11 1.1096991495174316e-10)
(7.802508696480749e-07 -1.3012140831620874e-09 -1.1458113778152708e-10 1.0302823743515254e-09 -1.4414660675281553e-10 1.9440261019934462e-10)
(1.1902878385027702e-06 -4.480007515426253e-09 -1.6226220656277115e-10 5.768275792705222e-09 -6.347181392983563e-10 3.2801672380134753e-10)
(1.4819198747259649e-06 -8.215805539821566e-09 -2.671261241331425e-10 1.9041962005835525e-08 -1.8046600300145797e-09 4.899579397986899e-10)
(1.7411042410419618e-06 -1.1837064662660372e-08 -4.312728309756706e-10 4.664343558726262e-08 -3.7398079541806625e-09 6.650819521003306e-10)
(2.02549670356424e-06 -1.6159620960529292e-08 -6.274710815352363e-10 9.431150986777169e-08 -6.383124106502007e-09 8.353792446060258e-10)
(2.3709764686103372e-06 -2.293274181293713e-08 -9.254937821984433e-10 1.6687316007092703e-07 -9.596045238222936e-09 1.0007866442938132e-09)
(2.8010740366459537e-06 -3.3900973269793515e-08 -1.5137580204480302e-09 2.6773846996134337e-07 -1.318842062720202e-08 1.1560171233726487e-09)
(3.3327710906465212e-06 -4.976610189861774e-08 -2.7132548042136024e-09 3.985165409179835e-07 -1.6945233736584942e-08 1.3062683195041406e-09)
(3.978210158069591e-06 -6.94732796297255e-08 -4.868220634568974e-09 5.590655222380958e-07 -2.067525721425677e-08 1.4547163412159536e-09)
(4.744818651142785e-06 -8.99524625297598e-08 -8.278901680685236e-09 7.478413260671966e-07 -2.4233402462490013e-08 1.6062448345192006e-09)
(5.6348949758641635e-06 -1.0645107547562927e-07 -1.3124626967513436e-08 9.624839008010362e-07 -2.753056341489855e-08 1.7653927090874778e-09)
(6.643630147681095e-06 -1.1308673552605024e-07 -1.937805278247633e-08 1.2001212335009505e-06 -3.053321974548669e-08 1.9298778339693213e-09)
(7.759764955837383e-06 -1.0401848628625914e-07 -2.6842725066077016e-08 1.4578857762931093e-06 -3.323137038185845e-08 2.096949716201658e-09)
(8.96754230724966e-06 -7.414924036465125e-08 -3.5199268932531986e-08 1.7331788372571492e-06 -3.562508378852295e-08 2.2627746598723744e-09)
(1.024611306667329e-05 -1.992520879773094e-08 -4.401408485274007e-08 2.023566363675221e-06 -3.771425292407365e-08 2.4207844946976136e-09)
(1.1572573802938719e-05 6.015687768646978e-08 -5.2854424505937465e-08 2.326711866797881e-06 -3.94928263221768e-08 2.5659436475185788e-09)
(1.292369182944867e-05 1.6583033406935515e-07 -6.131912934419479e-08 2.6404506706155244e-06 -4.094805992809179e-08 2.6948658219898465e-09)
(1.4277530405525787e-05 2.948179974883146e-07 -6.90995794547108e-08 2.9625389491119233e-06 -4.2051915946541624e-08 2.8050972533782153e-09)
(1.5613878022214743e-05 4.437095839911828e-07 -7.595818614031337e-08 3.2906180473150287e-06 -4.277699291343781e-08 2.8958645664262483e-09)
(1.6916494964008e-05 6.079076865214046e-07 -8.177137846419424e-08 3.622177068063599e-06 -4.311046515400389e-08 2.9699976004958e-09)
(1.817150207558694e-05 7.82364942682198e-07 -8.64725898633206e-08 3.954563821552711e-06 -4.3047493312792575e-08 3.0302839309321857e-09)
(1.9369517212062597e-05 9.618467756030705e-07 -9.006803568672523e-08 4.28531806080469e-06 -4.259316853284712e-08 3.0785728729660143e-09)
(2.0503277188352522e-05 1.1411697977163025e-06 -9.261426060680255e-08 4.611778192078666e-06 -4.176229205840406e-08 3.11772499608755e-09)
(2.1569644285753085e-05 1.3155624983133298e-06 -9.422990535826647e-08 4.931525547738238e-06 -4.058054437858257e-08 3.1520433691739432e-09)
(2.2567176152901062e-05 1.4808951250570833e-06 -9.505788745675541e-08 5.242214245084831e-06 -3.908383914458874e-08 3.1852425487392668e-09)
(2.349717030324556e-05 1.6339607232466114e-06 -9.526648973415628e-08 5.541882890324192e-06 -3.731865652442269e-08 3.220260827493837e-09)
(2.436181487811738e-05 1.7723598097433933e-06 -9.502255963218663e-08 5.8288710700566086e-06 -3.534528567786249e-08 3.259865661639558e-09)
(2.5165012543812875e-05 1.8947919656032884e-06 -9.448794715812035e-08 6.1021446976083435e-06 -3.3238492568867044e-08 3.3066569143771275e-09)
(2.5910558253878055e-05 2.000457785175914e-06 -9.379300265344659e-08 6.3609829703358795e-06 -3.106901562739956e-08 3.3619221474229107e-09)
(2.660326927289691e-05 2.0894531450375297e-06 -9.301702375347015e-08 6.6055801636914974e-06 -2.8895257051098223e-08 3.42500419053261e-09)
(2.7247626867545914e-05 2.1620191589765642e-06 -9.223344343346422e-08 6.836172247993858e-06 -2.6766065022876014e-08 3.4952699091459615e-09)
(2.7848598946695617e-05 2.2187662624894707e-06 -9.150794127857335e-08 7.0534604420363705e-06 -2.470502938888121e-08 3.5726367968449135e-09)
(2.8411153358025087e-05 2.260488072757556e-06 -9.090005268969396e-08 7.258279600786105e-06 -2.273089924908953e-08 3.6572278257666135e-09)
(2.8938856335398567e-05 2.2883648183145292e-06 -9.044665083570996e-08 7.451385704277017e-06 -2.085805741782421e-08 3.749541863209411e-09)
(2.9435246119750453e-05 2.303750052046461e-06 -9.017888235861863e-08 7.633659738211359e-06 -1.9100820935339585e-08 3.8501144758118664e-09)
(2.9903568586165172e-05 2.308253014937598e-06 -9.012117246011786e-08 7.80621572116265e-06 -1.7484954494091966e-08 3.958753285236936e-09)
(3.0347140952994627e-05 2.3036126723688025e-06 -9.029209549809604e-08 7.970369357956877e-06 -1.603925711298979e-08 4.0748887700739415e-09)
(3.076779194891747e-05 2.291098029133801e-06 -9.065019146481407e-08 8.127297914688863e-06 -1.4755692186239832e-08 4.1963050674701576e-09)
(3.116606917705184e-05 2.2715306270233866e-06 -9.109697672371223e-08 8.278094790365426e-06 -1.359070723410121e-08 4.3192606222507755e-09)
(3.1542756286786496e-05 2.2454054338097858e-06 -9.156109425506292e-08 8.423464092760357e-06 -1.2501707025677255e-08 4.442018034795057e-09)
(3.189958570026323e-05 2.21250735232774e-06 -9.203754534145016e-08 8.563385421498445e-06 -1.1451485283435381e-08 4.567483862423993e-09)
(3.2238492857930735e-05 2.1726607394410415e-06 -9.254219549259839e-08 8.697754776765909e-06 -1.0416070027113938e-08 4.698881588013769e-09)
(3.256245816396641e-05 2.126402220444005e-06 -9.316456302858289e-08 8.826851715391684e-06 -9.447512965363789e-09 4.8376734911955915e-09)
(3.287475326030285e-05 2.0745746461318074e-06 -9.401952680364125e-08 8.951076827588827e-06 -8.626266885184328e-09 4.984526918640641e-09)
(3.317852610635459e-05 2.0183239731574887e-06 -9.51364460494914e-08 9.07159986062654e-06 -7.999181987130058e-09 5.137535789360113e-09)
(3.3476921816538435e-05 1.959086082037172e-06 -9.645597067186576e-08 9.190441981610123e-06 -7.577717387022862e-09 5.292181971852551e-09)
(3.377274694576055e-05 1.8978990677593182e-06 -9.79050600319463e-08 9.309477277783195e-06 -7.3553149385127474e-09 5.444825429060679e-09)
(3.4067988052060136e-05 1.8343441883158822e-06 -9.938650917268393e-08 9.43004827456126e-06 -7.273340219778893e-09 5.595431072006276e-09)
(3.4364315227151793e-05 1.7677383926919712e-06 -1.0080054068777765e-07 9.553242418232696e-06 -7.262727811540874e-09 5.74446949551466e-09)
(3.466457687726195e-05 1.6970131362301264e-06 -1.0212132356996533e-07 9.679406840824274e-06 -7.26855897472562e-09 5.8918062269662015e-09)
(3.497209265613701e-05 1.6209098321516904e-06 -1.0337214791470475e-07 9.808225034329133e-06 -7.245198282588455e-09 6.036707637127013e-09)
(3.5290987787771455e-05 1.5387962044498359e-06 -1.0461048662591387e-07 9.939207420180792e-06 -7.161519058779587e-09 6.180244919662727e-09)
(3.5626559830594745e-05 1.4516602722902158e-06 -1.0596692696445038e-07 1.0071292997493727e-05 -7.021222227397397e-09 6.3274346890114835e-09)
(3.598413643065178e-05 1.3607476569611933e-06 -1.0757335263255921e-07 1.0203422405689564e-05 -6.8346297578329834e-09 6.483388573289705e-09)
(3.636533667286541e-05 1.2675965977196866e-06 -1.0943614046546115e-07 1.0335171235937078e-05 -6.627870457651287e-09 6.646939316099057e-09)
(3.676965171805323e-05 1.17393061378997e-06 -1.1148842969090355e-07 1.0466491767426391e-05 -6.4366719731967935e-09 6.813252810446104e-09)
(3.719592188355894e-05 1.0811805111701728e-06 -1.1365981049705107e-07 1.0597518333935705e-05 -6.294710884816012e-09 6.979080122209487e-09)
(3.7641727845085635e-05 9.900653804743186e-07 -1.1587693442689992e-07 1.0728786368940265e-05 -6.2296670199331485e-09 7.144880018238191e-09)
(3.810460543869144e-05 9.011615755794426e-07 -1.180721490895165e-07 1.0860815189875724e-05 -6.263506924970537e-09 7.311484303611967e-09)
(3.858545394039702e-05 8.14063600030233e-07 -1.2026625933578063e-07 1.0993710722286472e-05 -6.3608814122725116e-09 7.478989485840453e-09)
(3.9086910110273336e-05 7.278280486120543e-07 -1.2253214229410727e-07 1.112724859898708e-05 -6.451567108534287e-09 7.646946609449481e-09)
(3.961059335449936e-05 6.422187060316756e-07 -1.2493335277303298e-07 1.1261201406639543e-05 -6.497081632409368e-09 7.814982855431317e-09)
(4.015514913728632e-05 5.588217323609671e-07 -1.2750452009233086e-07 1.1395252646388543e-05 -6.539243568362659e-09 7.982816224930989e-09)
(4.071877230749008e-05 4.795477953319038e-07 -1.302757959056026e-07 1.1529079667854305e-05 -6.629484027849178e-09 8.150228073633577e-09)
(4.1301108434721275e-05 4.0633220707803865e-07 -1.33269408711817e-07 1.1662784404125475e-05 -6.775832605529141e-09 8.318008945621658e-09)
(4.190253402262134e-05 3.4119055025353807e-07 -1.36500734656232e-07 1.1796700848673821e-05 -6.955562541437647e-09 8.487585008695379e-09)
(4.25208222280579e-05 2.8561018221541895e-07 -1.399272684190968e-07 1.1931210673716655e-05 -7.148603779622037e-09 8.659114655897529e-09)
(4.314624532606474e-05 2.3932670757313826e-07 -1.4333422654148678e-07 1.2066883965547662e-05 -7.3463683941969194e-09 8.828917868078157e-09)
(4.376767429134063e-05 2.0168712500931604e-07 -1.4647838398405446e-07 1.2204288157975017e-05 -7.541438114256471e-09 8.992813392157454e-09)
(4.437953789076809e-05 1.7109982188024352e-07 -1.4930172319195765e-07 1.2343104420368216e-05 -7.71185360756483e-09 9.152720831908758e-09)
(4.4981579499786646e-05 1.450972912285783e-07 -1.519155673504325e-07 1.2482272937475074e-05 -7.82246794642662e-09 9.316180804756504e-09)
(4.557302195714692e-05 1.212686248598014e-07 -1.5441195446703532e-07 1.262100890546425e-05 -7.861529573128073e-09 9.488819019145744e-09)
(4.6150647721176306e-05 9.778227903123655e-08 -1.567715800967473e-07 1.275994429284971e-05 -7.917655650222611e-09 9.667064933305205e-09)
(4.671050761438161e-05 7.292492398210811e-08 -1.589462972204108e-07 1.2900039739241791e-05 -8.103129407533005e-09 9.84482842987577e-09)
(4.725289289837106e-05 4.515156419624062e-08 -1.6092439013518832e-07 1.3041775706700389e-05 -8.392310394394202e-09 1.0016307212196532e-08)
(4.778293825548359e-05 1.3137486069921213e-08 -1.6273689939940326e-07 1.3184997876809845e-05 -8.594433038753774e-09 1.0176004999221204e-08)
(4.830505934374308e-05 -2.4109517224277487e-08 -1.6443429618235128e-07 1.3328973207187608e-05 -8.53547977655075e-09 1.0320639223687653e-08)
(4.8817426706647166e-05 -6.561917981722856e-08 -1.661574551167566e-07 1.3469987733260984e-05 -8.215144280847704e-09 1.0459998222588537e-08)
(4.931572326986458e-05 -1.0966360935872549e-07 -1.680803899767e-07 1.3603159941614008e-05 -7.696481257576662e-09 1.06085134038119e-08)
(4.9799481799961705e-05 -1.5383295400632434e-07 -1.7030850848020009e-07 1.372676391839835e-05 -7.106676775098037e-09 1.0771744721547865e-08)
(5.027399949873263e-05 -1.946690235352526e-07 -1.7283672478429905e-07 1.3843978937527652e-05 -6.6713296774092515e-09 1.094114017021011e-08)
(5.074488898452725e-05 -2.2891080429115297e-07 -1.7563740502584577e-07 1.3958314943877099e-05 -6.597717575869195e-09 1.1107403352448805e-08)
(5.121626857684542e-05 -2.5621842893284386e-07 -1.7859147331931523e-07 1.4072183016601523e-05 -6.846426092343696e-09 1.1266803683084776e-08)
(5.169154243090977e-05 -2.776134365184925e-07 -1.81534942975962e-07 1.4187501472613775e-05 -7.261754347030046e-09 1.1418133126902975e-08)
(5.216999962195043e-05 -2.945550581416868e-07 -1.8434435547798434e-07 1.4305215539502676e-05 -7.683376055067065e-09 1.1560322639971094e-08)
(5.264322658708065e-05 -3.0931999783563036e-07 -1.869825348876053e-07 1.4424420715826878e-05 -7.948277404311811e-09 1.1692698345607077e-08)
(5.310218113161826e-05 -3.2402227901344286e-07 -1.8943219935268052e-07 1.4543795006225058e-05 -7.909515034919365e-09 1.1814950780567131e-08)
(5.354471027021648e-05 -3.3785947598555146e-07 -1.9179187308470363e-07 1.4660913213742623e-05 -7.616215787697339e-09 1.1930587686085851e-08)
(5.397247390167066e-05 -3.483687332566779e-07 -1.9422633675349725e-07 1.4772682235425926e-05 -7.228851111862558e-09 1.2045303566093718e-08)
(5.438510853388751e-05 -3.542788427956197e-07 -1.9679240019894025e-07 1.487687129343928e-05 -6.845750081708101e-09 1.2162188108841418e-08)
(5.477816502556637e-05 -3.571173647058855e-07 -1.9930202645756482e-07 1.4973453130493868e-05 -6.417635355776279e-09 1.2278414787998742e-08)
(5.514668432797954e-05 -3.5857773915075215e-07 -2.015576930242562e-07 1.5062675742349889e-05 -5.884983087840597e-09 1.2390477641012844e-08)
(5.548758189799198e-05 -3.577067987611928e-07 -2.0366202292080516e-07 1.5144586095839637e-05 -5.304060781794272e-09 1.2496996651135812e-08)
(5.579890865731157e-05 -3.5192505912205e-07 -2.0590193871671788e-07 1.521912064494841e-05 -4.802626516305886e-09 1.259788096656416e-08)
(5.6077390919001914e-05 -3.40347875815896e-07 -2.0829726028836024e-07 1.5286902598989418e-05 -4.457654878553274e-09 1.2692025271491543e-08)
(5.6316678497065865e-05 -3.260586581337951e-07 -2.10248852591494e-07 1.535007068947851e-05 -4.224764122659985e-09 1.2775962122159415e-08)
(5.65117089771172e-05 -3.1247547028332287e-07 -2.1115226078392264e-07 1.541103862982263e-05 -4.0562563508976075e-09 1.284648028598494e-08)
(5.667465189820977e-05 -3.002237060045096e-07 -2.1131445726906523e-07 1.54721405891464e-05 -4.0457101658973895e-09 1.2906562830154936e-08)
(5.682776063027151e-05 -2.883238600299484e-07 -2.1156934197066596e-07 1.5535705261877527e-05 -4.367861407747297e-09 1.2962811042530806e-08)
(5.69875347985286e-05 -2.7532548701058516e-07 -2.1247195684775774e-07 1.5603564129230362e-05 -5.028396255971809e-09 1.3021333853491085e-08)
(5.7158413985275664e-05 -2.5892343445859434e-07 -2.1399807666076473e-07 1.5676522545969877e-05 -5.697076089743355e-09 1.3087014375572708e-08)
(5.734136602039545e-05 -2.3704519204418687e-07 -2.1600331141493245e-07 1.5755186503897847e-05 -6.057298040832344e-09 1.3163798426151507e-08)
(5.752136576784248e-05 -2.1045592783428776e-07 -2.179627806776899e-07 1.5839367104147498e-05 -6.2331550692261475e-09 1.3248918472818667e-08)
(5.76763297756219e-05 -1.8126263880486242e-07 -2.1918297873264592e-07 1.5928519949101648e-05 -6.544109720630321e-09 1.3336545224105434e-08)
(5.7801597880944674e-05 -1.537949885977375e-07 -2.1953191013488259e-07 1.602102955920233e-05 -7.005555894811212e-09 1.3420900828778961e-08)
(5.7917623089520444e-05 -1.3545916506047951e-07 -2.196822881582318e-07 1.6113872706643337e-05 -7.198162703746844e-09 1.3496466221612691e-08)
(5.8041178417190116e-05 -1.315439870532019e-07 -2.2026135111926694e-07 1.6203625280283318e-05 -6.787424857125697e-09 1.3560502774606505e-08)
(5.816238952682344e-05 -1.360502030828839e-07 -2.2135556216423766e-07 1.6286060436018138e-05 -6.006356457074619e-09 1.362332175869529e-08)
(5.82642794265522e-05 -1.3991477313520908e-07 -2.2288633897817478e-07 1.6356921736092604e-05 -5.243359858225291e-09 1.3698315951254522e-08)
(5.834159543752417e-05 -1.3880347743908635e-07 -2.245667067864875e-07 1.6416783924077267e-05 -4.696088729683759e-09 1.3784696338364901e-08)
(5.8398961338649906e-05 -1.323712078500705e-07 -2.2593191066670964e-07 1.6470282882503446e-05 -4.401750336976123e-09 1.3869633273518365e-08)
(5.8443933705587696e-05 -1.2200002074553085e-07 -2.2674227052965926e-07 1.652107564560826e-05 -4.337877209553953e-09 1.3943244301861722e-08)
(5.8489686951335316e-05 -1.1265237361420032e-07 -2.272860324758739e-07 1.657015931260836e-05 -4.3591814820271275e-09 1.4003423653584423e-08)
(5.854723852534508e-05 -1.0894384430192004e-07 -2.2786707182485506e-07 1.6618060617818957e-05 -4.307234202585169e-09 1.404904496424151e-08)
(5.8607722716791594e-05 -1.0969535686821189e-07 -2.2840307737823682e-07 1.66643757579365e-05 -4.066461251250334e-09 1.4078669255332874e-08)
(5.865518475065468e-05 -1.1143985665342598e-07 -2.2867769436174904e-07 1.6708220332894538e-05 -3.542583493082883e-09 1.4091344982672888e-08)
(5.86888097595454e-05 -1.1048206926733985e-07 -2.2880887885258332e-07 1.6746191756313555e-05 -2.7746634529020344e-09 1.409800973608408e-08)
(5.872190401061711e-05 -1.0295098525606714e-07 -2.292257340973044e-07 1.677256762567642e-05 -1.925935449429462e-09 1.4120634050490743e-08)
(5.8758251621534056e-05 -9.065237026665267e-08 -2.3006634263080242e-07 1.678446519418897e-05 -1.105983076609165e-09 1.4164904037258164e-08)
(5.878084058534261e-05 -8.705493774913001e-08 -2.308412708572052e-07 1.678512704966816e-05 -3.008818975033959e-10 1.4201927909060717e-08)
(5.877620380902345e-05 -9.656724416534756e-08 -2.3113451884631428e-07 1.677836725773418e-05 4.5318344233130537e-10 1.420807178094636e-08)
(5.875961637984479e-05 -7.559072981378376e-08 -2.3124596023234137e-07 1.6766894567214065e-05 8.286821103049455e-10 1.4204730541274353e-08)
(5.8752627150389505e-05 2.3296786878584092e-08 -2.3162050518950942e-07 1.6753434682413287e-05 4.750718325362149e-10 1.4222202491539676e-08)
(5.875516251083717e-05 1.43340737582403e-07 -2.3207252436588873e-07 1.674336415707993e-05 -3.1144541080840213e-10 1.424848354119313e-08)
(7.802508696480751e-07 -1.1458113778152726e-10 -1.3012140831620868e-09 1.9440261019934424e-10 -1.4414660675281545e-10 1.0302823743515258e-09)
(3.970218112272565e-06 -6.149118688038627e-09 -6.149118688038626e-09 6.547866615331964e-09 -3.27197724664362e-09 6.5478666153319645e-09)
(6.905372632542889e-06 -2.3321256180094335e-08 -9.863510294622622e-09 4.139098814127111e-08 -1.6485773200739784e-08 1.5659958548110417e-08)
(9.359656673512242e-06 -4.68523682685566e-08 -1.3262734485541314e-08 1.3887061826274834e-07 -4.480594464964212e-08 2.6836611423053136e-08)
(1.1722610742577846e-05 -7.458486974631197e-08 -1.7107932607783662e-08 3.388711248036574e-07 -8.960193152416593e-08 3.869297986873587e-08)
(1.4360735034622738e-05 -1.1295155773429482e-07 -2.1909231210192035e-08 6.802833283054094e-07 -1.4954224738027436e-07 5.036020549902267e-08)
(1.75462630696779e-05 -1.7364679638907362e-07 -3.0457394924230325e-08 1.1953291436986493e-06 -2.2146373142461238e-07 6.141043182720933e-08)
(2.1481549911530503e-05 -2.671491584455806e-07 -4.8012997425593415e-08 1.9062663634514623e-06 -3.012705421382625e-07 7.175883827057984e-08)
(2.6322897524453006e-05 -3.952941114245884e-07 -8.256859559032956e-08 2.823032959147124e-06 -3.8442946717569055e-07 8.156257677032183e-08)
(3.218574307497076e-05 -5.464817091658472e-07 -1.4244226866061872e-07 3.944034376981076e-06 -4.6699818094012854e-07 9.112960351682115e-08)
(3.9141560516263114e-05 -6.945781433594647e-07 -2.344686973417103e-07 5.258693586794718e-06 -5.459964688914822e-07 1.007762832650995e-07)
(4.721342155855473e-05 -8.018088969114863e-07 -3.624463098471774e-07 6.751248749837692e-06 -6.19534643162198e-07 1.1069793602338769e-07)
(5.6358623105116744e-05 -8.230583529897792e-07 -5.255245900729297e-07 8.40248496786743e-06 -6.867727533000932e-07 1.2086048389232162e-07)
(6.64748829036169e-05 -7.144657637922344e-07 -7.186611675366573e-07 1.0193183017841078e-05 -7.474016838873311e-07 1.31094894777018e-07)
(7.741880945142265e-05 -4.3835029121863503e-07 -9.339605249500736e-07 1.2106024590014053e-05 -8.013777257058956e-07 1.411415436470161e-07)
(8.900116982219733e-05 3.0934013773205534e-08 -1.161140705701322e-06 1.4124949615067445e-05 -8.487004096613501e-07 1.5065460733154473e-07)
(0.00010101455043310058 7.037331993354394e-07 -1.3898436541535342e-06 1.6234597503728285e-05 -8.891543569638406e-07 1.5933058340055622e-07)
(0.00011324893970325803 1.577266411064285e-06 -1.61037442839292e-06 1.842079765034727e-05 -9.223438603690082e-07 1.6693255025783742e-07)
(0.00012550650399182102 2.633758709013109e-06 -1.8152783516308635e-06 2.0668755107225035e-05 -9.477151239251206e-07 1.7334414312332586e-07)
(0.00013760504409182587 3.846957362396843e-06 -1.99872736390521e-06 2.296302758900587e-05 -9.647512997124772e-07 1.7855011721539547e-07)
(0.00014939797555636264 5.18171800875258e-06 -2.1574149554098183e-06 2.5287542801329824e-05 -9.731646250231106e-07 1.8269744128666347e-07)
(0.0001607601031532801 6.5992580993445605e-06 -2.289426601015264e-06 2.7625025096323386e-05 -9.728177759882725e-07 1.8594562295264215e-07)
(0.000171607052111677 8.059077599401624e-06 -2.394714125631706e-06 2.995906125350141e-05 -9.637752271640398e-07 1.8843617282439226e-07)
(0.00018187343544065447 9.521036169385006e-06 -2.474424186833005e-06 3.227167311617967e-05 -9.463101421128457e-07 1.9035844918305296e-07)
(0.00019153094766960897 1.09482618353414e-05 -2.5311944663289237e-06 3.454644819138316e-05 -9.209322698483318e-07 1.919671136478901e-07)
(0.0002005665231182513 1.2308503295681002e-05 -2.5682775778028254e-06 3.676701220642576e-05 -8.883730163660145e-07 1.9349136187236022e-07)
(0.00020899178761409515 1.357629957080666e-05 -2.5895900866422686e-06 3.8919156397678084e-05 -8.495919449546813e-07 1.9512633333516216e-07)
(0.00021682616768227718 1.4732047100126752e-05 -2.5990096492444556e-06 4.099033404610498e-05 -8.058094807365928e-07 1.9705278449967355e-07)
(0.00022410429945195911 1.5764260182495506e-05 -2.6003011545986355e-06 4.297191086622057e-05 -7.585132452206079e-07 1.9943503341401004e-07)
(0.0002308598514361132 1.6665191397630384e-05 -2.59656423132325e-06 4.485699503327804e-05 -7.091883356821315e-07 2.0236460377492245e-07)
(0.00023713580785542435 1.7434012900742997e-05 -2.58983759781378e-06 4.664459589263682e-05 -6.591855112298167e-07 2.058251063992784e-07)
(0.00024297196610513014 1.8070925803545512e-05 -2.5819811753409647e-06 4.833403677986072e-05 -6.096779697163172e-07 2.0978838562987886e-07)
(0.00024841223527847367 1.8579013666769237e-05 -2.574578409319478e-06 4.992827580764046e-05 -5.613236019539595e-07 2.142273002783943e-07)
(0.0002535006329455221 1.8962933446223527e-05 -2.5690962798513044e-06 5.1431432498570665e-05 -5.14664710212873e-07 2.19125176266446e-07)
(0.0002582691143752348 1.9230925019485404e-05 -2.5666024417041774e-06 5.284776247361392e-05 -4.7008886084701446e-07 2.2449853314393676e-07)
(0.0002627495068055471 1.939266441342619e-05 -2.5680482622526722e-06 5.4182499151468474e-05 -4.279539187460385e-07 2.3036907189307724e-07)
(0.0002669708931061153 1.9459411792358643e-05 -2.5740689648721404e-06 5.5442004861793e-05 -3.8876200267064506e-07 2.3672115698800324e-07)
(0.000270962984438839 1.944331328123666e-05 -2.5851063577319768e-06 5.663385548891111e-05 -3.530413484417324e-07 2.435196165611672e-07)
(0.0002747427617515703 1.93541250320463e-05 -2.6004331491809385e-06 5.7765244309851016e-05 -3.207358740815043e-07 2.5063689624042733e-07)
(0.0002783163098281038 1.9199337469892702e-05 -2.6182138673936753e-06 5.8843352098344545e-05 -2.9122254624090793e-07 2.5785985770508e-07)
(0.0002816915457774046 1.8984523879374007e-05 -2.6370614866102097e-06 5.987357119422514e-05 -2.638716355744072e-07 2.650819970567599e-07)
(0.0002848841991815018 1.8710921239488267e-05 -2.656716543355584e-06 6.085820826391354e-05 -2.3808019952131961e-07 2.7244538767141245e-07)
(0.0002879116769795151 1.8379826747297732e-05 -2.6773302060957857e-06 6.179897488385414e-05 -2.1342944103578848e-07 2.801140941667454e-07)
(0.0002908003965266123 1.7995289083714106e-05 -2.70068512338227e-06 6.269837427881693e-05 -1.9058155776180517e-07 2.8819068253294506e-07)
(0.0002935792571793125 1.7562738728231936e-05 -2.7291265935065923e-06 6.355901631289788e-05 -1.7061685349839519e-07 2.967463671333505e-07)
(0.00029627619512721386 1.7090712550010438e-05 -2.7633179325233365e-06 6.438783399162076e-05 -1.5439975166193256e-07 3.0568628709930737e-07)
(0.00029891926248417494 1.659076994931904e-05 -2.802182678883773e-06 6.519661177749865e-05 -1.4256077838757834e-07 3.1474654416139026e-07)
(0.0003015337778917115 1.6071501599870007e-05 -2.8442554812543337e-06 6.599678232744149e-05 -1.3529122045893317e-07 3.237027466495589e-07)
(0.00030413858014579606 1.553036051354651e-05 -2.887237962354887e-06 6.679842088888346e-05 -1.3139994888702126e-07 3.325068742768507e-07)
(0.0003067498445343939 1.4962908346467638e-05 -2.9287227727814375e-06 6.761030836183846e-05 -1.2942443897758252e-07 3.41137841907126e-07)
(0.00030939351224194096 1.4362458607153772e-05 -2.9681903947916797e-06 6.84356429726063e-05 -1.2821480089486628e-07 3.496033656448323e-07)
(0.00031209926073211036 1.3721439571561794e-05 -3.0063691318173924e-06 6.927277475286998e-05 -1.2682903165520382e-07 3.579205393493587e-07)
(0.0003149041465091101 1.303635629069978e-05 -3.044670885416882e-06 7.011938139498643e-05 -1.2461351737675022e-07 3.6618328103178963e-07)
(0.00031785620351112894 1.231445999607232e-05 -3.085925115244422e-06 7.09704624065388e-05 -1.2160953267781851e-07 3.7464620514094626e-07)
(0.0003210037089872099 1.1564718466384923e-05 -3.132980158194637e-06 7.182114300327458e-05 -1.1799595522263978e-07 3.8356555038845867e-07)
(0.0003243608266739229 1.079840773008819e-05 -3.1860674193036024e-06 7.266989427102345e-05 -1.1433199641264003e-07 3.9289898909224985e-07)
(0.00032792213360955216 1.0028252211031556e-05 -3.2438928595054297e-06 7.351719486012296e-05 -1.1140619184366771e-07 4.0243000889241746e-07)
(0.00033167724227132583 9.265072891795793e-06 -3.3049844149552098e-06 7.436446371713393e-05 -1.0987203339862966e-07 4.1199842908284925e-07)
(0.0003356063807598171 8.514979112389603e-06 -3.3675835083721995e-06 7.521518505734274e-05 -1.1005737304394417e-07 4.215791143084464e-07)
(0.000339689163755025 7.783060177390543e-06 -3.4299984387043022e-06 7.607266037847934e-05 -1.1215942351061984e-07 4.3115971366134355e-07)
(0.0003439299429157281 7.066316645365574e-06 -3.4922705157538702e-06 7.693743064184158e-05 -1.1540191927030563e-07 4.4071554202067964e-07)
(0.00034834539918740987 6.3573197548441534e-06 -3.5554454890936865e-06 7.780784074864279e-05 -1.1841283401693949e-07 4.5020823521256404e-07)
(0.0003529482072992493 5.653858143907954e-06 -3.6207978453241585e-06 7.86813827776937e-05 -1.2035064898600303e-07 4.596261761832714e-07)
(0.00035773710951922367 4.967258307284492e-06 -3.6900246759732676e-06 7.95529831341654e-05 -1.2172422863379314e-07 4.6901667276086656e-07)
(0.0003627078528821604 4.3113477732460174e-06 -3.764813321125826e-06 8.041733344063711e-05 -1.2323794253271637e-07 4.784354069965384e-07)
(0.0003678546541431963 3.7013221444070496e-06 -3.845517818357825e-06 8.127414261147564e-05 -1.2535637224073555e-07 4.879331440539176e-07)
(0.0003731679863853137 3.1538583659596215e-06 -3.931510565015645e-06 8.21262224056613e-05 -1.2837800675048796e-07 4.975526996761672e-07)
(0.000378619581551365 2.681592667708046e-06 -4.021206142071415e-06 8.29773078692466e-05 -1.3247791404605332e-07 5.072694754944369e-07)
(0.0003841291592935805 2.283598041614507e-06 -4.110300073922695e-06 8.383404431351866e-05 -1.374535782622106e-07 5.16859836724103e-07)
(0.00038960654953539746 1.9559038428235082e-06 -4.1940364708129995e-06 8.470340979971149e-05 -1.4300502464127595e-07 5.260747701615241e-07)
(0.00039500379518689815 1.686069143591798e-06 -4.27099403126705e-06 8.558574137720958e-05 -1.4846291355474424e-07 5.350090214183786e-07)
(0.0004003136396693615 1.4537619860595542e-06 -4.342811708601471e-06 8.647575879185162e-05 -1.5282274851928226e-07 5.440739990615548e-07)
(0.0004055256242986592 1.239107372883728e-06 -4.410894730744367e-06 8.73690719318672e-05 -1.5554692155922983e-07 5.535810738391022e-07)
(0.0004106147629098485 1.027048444488276e-06 -4.4751547135966495e-06 8.826680156886333e-05 -1.581421208677183e-07 5.633565757429983e-07)
(0.0004155514145174211 8.036217480700285e-07 -4.535121315662129e-06 8.91712020131253e-05 -1.626020991384643e-07 5.730935906686195e-07)
(0.00042034016335827835 5.593266715581325e-07 -4.591100481957135e-06 9.008232680800554e-05 -1.6849178067252465e-07 5.824819234588871e-07)
(0.0004250244984978418 2.901516288167043e-07 -4.644300275578025e-06 9.099722626593795e-05 -1.7246749518779644e-07 5.912052713265918e-07)
(0.0004296412982816408 -5.937470005605684e-09 -4.696149979869406e-06 9.191036182521144e-05 -1.715241763816308e-07 5.990731354262907e-07)
(0.0004341723470630555 -3.2120950741753516e-07 -4.748855776104971e-06 9.280328034143706e-05 -1.6595703791006084e-07 6.066458537631813e-07)
(0.0004385774366049768 -6.440642435243805e-07 -4.804905885642606e-06 9.365229837262491e-05 -1.5726589855309126e-07 6.147507865437423e-07)
(0.000442850562141607 -9.608949202376588e-07 -4.866031219187877e-06 9.444947988631312e-05 -1.4786733141415612e-07 6.237117659999829e-07)
(0.00044703697609941825 -1.2550216078082335e-06 -4.932715267645711e-06 9.521124566159542e-05 -1.415739596825044e-07 6.330516995519756e-07)
(0.00045118494083020675 -1.510829635488534e-06 -5.0049837232338275e-06 9.595577830191453e-05 -1.4183206584618916e-07 6.422445780581346e-07)
(0.000455331267650168 -1.7265487179127942e-06 -5.080275093237477e-06 9.669692294700074e-05 -1.47668309976339e-07 6.510280565106251e-07)
(0.00045950729223585217 -1.9068467071459828e-06 -5.154773047563136e-06 9.744659944457297e-05 -1.5602262940075442e-07 6.592580372730323e-07)
(0.00046370863192674575 -2.0585627781937193e-06 -5.225896686023663e-06 9.820998213360801e-05 -1.6393677294874079e-07 6.668482011682404e-07)