/*--------------------------------*- C++ -*----------------------------------*\
| =========                 |                                                 |
| \\      /  F ield         | OpenFOAM: The Open Source CFD Toolbox           |
|  \\    /   O peration     | Version:  2306                                  |
|   \\  /    A nd           | Website:  www.openfoam.com                      |
|    \\/     M anipulation  |                                                 |
\*---------------------------------------------------------------------------*/
// * * * * * * * * * * * * * * * * * * * * * * * * * * * * * * * * * * * * * //
FoamFile
{
    version         2;
    format          ascii;
    class           volSymmTensorField;
    location        "98.96";
    object          Rdns;
}

dimensions      [ 0 2 -2 0 0 0 0 ];

internalField   nonuniform List<symmTensor> 
15625
(
(1.9982e-07 5.21858e-12 5.21858e-12 1.1097e-10 -6.66159e-11 1.1097e-10)
(7.80251e-07 -1.30121e-09 -1.14581e-10 1.03028e-09 -1.44147e-10 1.94403e-10)
(1.19029e-06 -4.48001e-09 -1.62262e-10 5.76828e-09 -6.34718e-10 3.28017e-10)
(1.48192e-06 -8.21581e-09 -2.67126e-10 1.9042e-08 -1.80466e-09 4.89958e-10)
(1.7411e-06 -1.18371e-08 -4.31273e-10 4.66434e-08 -3.73981e-09 6.65082e-10)
(2.0255e-06 -1.61596e-08 -6.27471e-10 9.43115e-08 -6.38312e-09 8.35379e-10)
(2.37098e-06 -2.29327e-08 -9.25494e-10 1.66873e-07 -9.59605e-09 1.00079e-09)
(2.80107e-06 -3.3901e-08 -1.51376e-09 2.67738e-07 -1.31884e-08 1.15602e-09)
(3.33277e-06 -4.97661e-08 -2.71325e-09 3.98517e-07 -1.69452e-08 1.30627e-09)
(3.97821e-06 -6.94733e-08 -4.86822e-09 5.59066e-07 -2.06753e-08 1.45472e-09)
(4.74482e-06 -8.99525e-08 -8.2789e-09 7.47841e-07 -2.42334e-08 1.60624e-09)
(5.63489e-06 -1.06451e-07 -1.31246e-08 9.62484e-07 -2.75306e-08 1.76539e-09)
(6.64363e-06 -1.13087e-07 -1.93781e-08 1.20012e-06 -3.05332e-08 1.92988e-09)
(7.75976e-06 -1.04018e-07 -2.68427e-08 1.45789e-06 -3.32314e-08 2.09695e-09)
(8.96754e-06 -7.41492e-08 -3.51993e-08 1.73318e-06 -3.56251e-08 2.26277e-09)
(1.02461e-05 -1.99252e-08 -4.40141e-08 2.02357e-06 -3.77143e-08 2.42078e-09)
(1.15726e-05 6.01569e-08 -5.28544e-08 2.32671e-06 -3.94928e-08 2.56594e-09)
(1.29237e-05 1.6583e-07 -6.13191e-08 2.64045e-06 -4.09481e-08 2.69487e-09)
(1.42775e-05 2.94818e-07 -6.90996e-08 2.96254e-06 -4.20519e-08 2.8051e-09)
(1.56139e-05 4.4371e-07 -7.59582e-08 3.29062e-06 -4.2777e-08 2.89586e-09)
(1.69165e-05 6.07908e-07 -8.17714e-08 3.62218e-06 -4.31105e-08 2.97e-09)
(1.81715e-05 7.82365e-07 -8.64726e-08 3.95456e-06 -4.30475e-08 3.03028e-09)
(1.93695e-05 9.61847e-07 -9.0068e-08 4.28532e-06 -4.25932e-08 3.07857e-09)
(2.05033e-05 1.14117e-06 -9.26143e-08 4.61178e-06 -4.17623e-08 3.11772e-09)
(2.15696e-05 1.31556e-06 -9.42299e-08 4.93153e-06 -4.05805e-08 3.15204e-09)
(2.25672e-05 1.4809e-06 -9.50579e-08 5.24221e-06 -3.90838e-08 3.18524e-09)
(2.34972e-05 1.63396e-06 -9.52665e-08 5.54188e-06 -3.73187e-08 3.22026e-09)
(2.43618e-05 1.77236e-06 -9.50226e-08 5.82887e-06 -3.53453e-08 3.25987e-09)
(2.5165e-05 1.89479e-06 -9.44879e-08 6.10214e-06 -3.32385e-08 3.30666e-09)
(2.59106e-05 2.00046e-06 -9.3793e-08 6.36098e-06 -3.1069e-08 3.36192e-09)
(2.66033e-05 2.08945e-06 -9.3017e-08 6.60558e-06 -2.88953e-08 3.425e-09)
(2.72476e-05 2.16202e-06 -9.22334e-08 6.83617e-06 -2.67661e-08 3.49527e-09)
(2.78486e-05 2.21877e-06 -9.15079e-08 7.05346e-06 -2.4705e-08 3.57264e-09)
(2.84112e-05 2.26049e-06 -9.09001e-08 7.25828e-06 -2.27309e-08 3.65723e-09)
(2.89389e-05 2.28836e-06 -9.04467e-08 7.45139e-06 -2.08581e-08 3.74954e-09)
(2.94352e-05 2.30375e-06 -9.01789e-08 7.63366e-06 -1.91008e-08 3.85011e-09)
(2.99036e-05 2.30825e-06 -9.01212e-08 7.80622e-06 -1.7485e-08 3.95875e-09)
(3.03471e-05 2.30361e-06 -9.02921e-08 7.97037e-06 -1.60393e-08 4.07489e-09)
(3.07678e-05 2.2911e-06 -9.06502e-08 8.1273e-06 -1.47557e-08 4.19631e-09)
(3.11661e-05 2.27153e-06 -9.1097e-08 8.27809e-06 -1.35907e-08 4.31926e-09)
(3.15428e-05 2.24541e-06 -9.15611e-08 8.42346e-06 -1.25017e-08 4.44202e-09)
(3.18996e-05 2.21251e-06 -9.20375e-08 8.56339e-06 -1.14515e-08 4.56748e-09)
(3.22385e-05 2.17266e-06 -9.25422e-08 8.69775e-06 -1.04161e-08 4.69888e-09)
(3.25625e-05 2.1264e-06 -9.31646e-08 8.82685e-06 -9.44751e-09 4.83767e-09)
(3.28748e-05 2.07457e-06 -9.40195e-08 8.95108e-06 -8.62627e-09 4.98453e-09)
(3.31785e-05 2.01832e-06 -9.51364e-08 9.0716e-06 -7.99918e-09 5.13754e-09)
(3.34769e-05 1.95909e-06 -9.6456e-08 9.19044e-06 -7.57772e-09 5.29218e-09)
(3.37727e-05 1.8979e-06 -9.79051e-08 9.30948e-06 -7.35531e-09 5.44483e-09)
(3.4068e-05 1.83434e-06 -9.93865e-08 9.43005e-06 -7.27334e-09 5.59543e-09)
(3.43643e-05 1.76774e-06 -1.00801e-07 9.55324e-06 -7.26273e-09 5.74447e-09)
(3.46646e-05 1.69701e-06 -1.02121e-07 9.67941e-06 -7.26856e-09 5.89181e-09)
(3.49721e-05 1.62091e-06 -1.03372e-07 9.80823e-06 -7.2452e-09 6.03671e-09)
(3.5291e-05 1.5388e-06 -1.0461e-07 9.93921e-06 -7.16152e-09 6.18024e-09)
(3.56266e-05 1.45166e-06 -1.05967e-07 1.00713e-05 -7.02122e-09 6.32743e-09)
(3.59841e-05 1.36075e-06 -1.07573e-07 1.02034e-05 -6.83463e-09 6.48339e-09)
(3.63653e-05 1.2676e-06 -1.09436e-07 1.03352e-05 -6.62787e-09 6.64694e-09)
(3.67697e-05 1.17393e-06 -1.11488e-07 1.04665e-05 -6.43667e-09 6.81325e-09)
(3.71959e-05 1.08118e-06 -1.1366e-07 1.05975e-05 -6.29471e-09 6.97908e-09)
(3.76417e-05 9.90065e-07 -1.15877e-07 1.07288e-05 -6.22967e-09 7.14488e-09)
(3.81046e-05 9.01162e-07 -1.18072e-07 1.08608e-05 -6.26351e-09 7.31148e-09)
(3.85855e-05 8.14064e-07 -1.20266e-07 1.09937e-05 -6.36088e-09 7.47899e-09)
(3.90869e-05 7.27828e-07 -1.22532e-07 1.11272e-05 -6.45157e-09 7.64695e-09)
(3.96106e-05 6.42219e-07 -1.24933e-07 1.12612e-05 -6.49708e-09 7.81498e-09)
(4.01551e-05 5.58822e-07 -1.27505e-07 1.13953e-05 -6.53924e-09 7.98282e-09)
(4.07188e-05 4.79548e-07 -1.30276e-07 1.15291e-05 -6.62948e-09 8.15023e-09)
(4.13011e-05 4.06332e-07 -1.33269e-07 1.16628e-05 -6.77583e-09 8.31801e-09)
(4.19025e-05 3.41191e-07 -1.36501e-07 1.17967e-05 -6.95556e-09 8.48759e-09)
(4.25208e-05 2.8561e-07 -1.39927e-07 1.19312e-05 -7.1486e-09 8.65911e-09)
(4.31462e-05 2.39327e-07 -1.43334e-07 1.20669e-05 -7.34637e-09 8.82892e-09)
(4.37677e-05 2.01687e-07 -1.46478e-07 1.22043e-05 -7.54144e-09 8.99281e-09)
(4.43795e-05 1.711e-07 -1.49302e-07 1.23431e-05 -7.71185e-09 9.15272e-09)
(4.49816e-05 1.45097e-07 -1.51916e-07 1.24823e-05 -7.82247e-09 9.31618e-09)
(4.5573e-05 1.21269e-07 -1.54412e-07 1.2621e-05 -7.86153e-09 9.48882e-09)
(4.61506e-05 9.77823e-08 -1.56772e-07 1.27599e-05 -7.91766e-09 9.66706e-09)
(4.67105e-05 7.29249e-08 -1.58946e-07 1.29e-05 -8.10313e-09 9.84483e-09)
(4.72529e-05 4.51516e-08 -1.60924e-07 1.30418e-05 -8.39231e-09 1.00163e-08)
(4.77829e-05 1.31375e-08 -1.62737e-07 1.3185e-05 -8.59443e-09 1.0176e-08)
(4.83051e-05 -2.41095e-08 -1.64434e-07 1.3329e-05 -8.53548e-09 1.03206e-08)
(4.88174e-05 -6.56192e-08 -1.66157e-07 1.347e-05 -8.21514e-09 1.046e-08)
(4.93157e-05 -1.09664e-07 -1.6808e-07 1.36032e-05 -7.69648e-09 1.06085e-08)
(4.97995e-05 -1.53833e-07 -1.70309e-07 1.37268e-05 -7.10668e-09 1.07717e-08)
(5.0274e-05 -1.94669e-07 -1.72837e-07 1.3844e-05 -6.67133e-09 1.09411e-08)
(5.07449e-05 -2.28911e-07 -1.75637e-07 1.39583e-05 -6.59772e-09 1.11074e-08)
(5.12163e-05 -2.56218e-07 -1.78591e-07 1.40722e-05 -6.84643e-09 1.12668e-08)
(5.16915e-05 -2.77613e-07 -1.81535e-07 1.41875e-05 -7.26175e-09 1.14181e-08)
(5.217e-05 -2.94555e-07 -1.84344e-07 1.43052e-05 -7.68338e-09 1.15603e-08)
(5.26432e-05 -3.0932e-07 -1.86983e-07 1.44244e-05 -7.94828e-09 1.16927e-08)
(5.31022e-05 -3.24022e-07 -1.89432e-07 1.45438e-05 -7.90952e-09 1.1815e-08)
(5.35447e-05 -3.37859e-07 -1.91792e-07 1.46609e-05 -7.61622e-09 1.19306e-08)
(5.39725e-05 -3.48369e-07 -1.94226e-07 1.47727e-05 -7.22885e-09 1.20453e-08)
(5.43851e-05 -3.54279e-07 -1.96792e-07 1.48769e-05 -6.84575e-09 1.21622e-08)
(5.47782e-05 -3.57117e-07 -1.99302e-07 1.49735e-05 -6.41764e-09 1.22784e-08)
(5.51467e-05 -3.58578e-07 -2.01558e-07 1.50627e-05 -5.88498e-09 1.23905e-08)
(5.54876e-05 -3.57707e-07 -2.03662e-07 1.51446e-05 -5.30406e-09 1.2497e-08)
(5.57989e-05 -3.51925e-07 -2.05902e-07 1.52191e-05 -4.80263e-09 1.25979e-08)
(5.60774e-05 -3.40348e-07 -2.08297e-07 1.52869e-05 -4.45765e-09 1.2692e-08)
(5.63167e-05 -3.26059e-07 -2.10249e-07 1.53501e-05 -4.22476e-09 1.2776e-08)
(5.65117e-05 -3.12475e-07 -2.11152e-07 1.5411e-05 -4.05626e-09 1.28465e-08)
(5.66747e-05 -3.00224e-07 -2.11314e-07 1.54721e-05 -4.04571e-09 1.29066e-08)
(5.68278e-05 -2.88324e-07 -2.11569e-07 1.55357e-05 -4.36786e-09 1.29628e-08)
(5.69875e-05 -2.75325e-07 -2.12472e-07 1.56036e-05 -5.0284e-09 1.30213e-08)
(5.71584e-05 -2.58923e-07 -2.13998e-07 1.56765e-05 -5.69708e-09 1.3087e-08)
(5.73414e-05 -2.37045e-07 -2.16003e-07 1.57552e-05 -6.0573e-09 1.31638e-08)
(5.75214e-05 -2.10456e-07 -2.17963e-07 1.58394e-05 -6.23316e-09 1.32489e-08)
(5.76763e-05 -1.81263e-07 -2.19183e-07 1.59285e-05 -6.54411e-09 1.33365e-08)
(5.78016e-05 -1.53795e-07 -2.19532e-07 1.6021e-05 -7.00556e-09 1.34209e-08)
(5.79176e-05 -1.35459e-07 -2.19682e-07 1.61139e-05 -7.19816e-09 1.34965e-08)
(5.80412e-05 -1.31544e-07 -2.20261e-07 1.62036e-05 -6.78742e-09 1.35605e-08)
(5.81624e-05 -1.3605e-07 -2.21356e-07 1.62861e-05 -6.00636e-09 1.36233e-08)
(5.82643e-05 -1.39915e-07 -2.22886e-07 1.63569e-05 -5.24336e-09 1.36983e-08)
(5.83416e-05 -1.38803e-07 -2.24567e-07 1.64168e-05 -4.69609e-09 1.37847e-08)
(5.8399e-05 -1.32371e-07 -2.25932e-07 1.64703e-05 -4.40175e-09 1.38696e-08)
(5.84439e-05 -1.22e-07 -2.26742e-07 1.65211e-05 -4.33788e-09 1.39432e-08)
(5.84897e-05 -1.12652e-07 -2.27286e-07 1.65702e-05 -4.35918e-09 1.40034e-08)
(5.85472e-05 -1.08944e-07 -2.27867e-07 1.66181e-05 -4.30723e-09 1.4049e-08)
(5.86077e-05 -1.09695e-07 -2.28403e-07 1.66644e-05 -4.06646e-09 1.40787e-08)
(5.86552e-05 -1.1144e-07 -2.28678e-07 1.67082e-05 -3.54258e-09 1.40913e-08)
(5.86888e-05 -1.10482e-07 -2.28809e-07 1.67462e-05 -2.77466e-09 1.4098e-08)
(5.87219e-05 -1.02951e-07 -2.29226e-07 1.67726e-05 -1.92594e-09 1.41206e-08)
(5.87583e-05 -9.06524e-08 -2.30066e-07 1.67845e-05 -1.10598e-09 1.41649e-08)
(5.87808e-05 -8.70549e-08 -2.30841e-07 1.67851e-05 -3.00882e-10 1.42019e-08)
(5.87762e-05 -9.65672e-08 -2.31135e-07 1.67784e-05 4.53183e-10 1.42081e-08)
(5.87596e-05 -7.55907e-08 -2.31246e-07 1.67669e-05 8.28682e-10 1.42047e-08)
(5.87526e-05 2.32968e-08 -2.31621e-07 1.67534e-05 4.75072e-10 1.42222e-08)
(5.87552e-05 1.43341e-07 -2.32073e-07 1.67434e-05 -3.11445e-10 1.42485e-08)
(7.80251e-07 -1.14581e-10 -1.30121e-09 1.94403e-10 -1.44147e-10 1.03028e-09)
(3.97022e-06 -6.14912e-09 -6.14912e-09 6.54787e-09 -3.27198e-09 6.54787e-09)
(6.90537e-06 -2.33213e-08 -9.86351e-09 4.1391e-08 -1.64858e-08 1.566e-08)
(9.35966e-06 -4.68524e-08 -1.32627e-08 1.38871e-07 -4.48059e-08 2.68366e-08)
(1.17226e-05 -7.45849e-08 -1.71079e-08 3.38871e-07 -8.96019e-08 3.8693e-08)
(1.43607e-05 -1.12952e-07 -2.19092e-08 6.80283e-07 -1.49542e-07 5.03602e-08)
(1.75463e-05 -1.73647e-07 -3.04574e-08 1.19533e-06 -2.21464e-07 6.14104e-08)
(2.14815e-05 -2.67149e-07 -4.8013e-08 1.90627e-06 -3.01271e-07 7.17588e-08)
(2.63229e-05 -3.95294e-07 -8.25686e-08 2.82303e-06 -3.84429e-07 8.15626e-08)
(3.21857e-05 -5.46482e-07 -1.42442e-07 3.94403e-06 -4.66998e-07 9.11296e-08)
(3.91416e-05 -6.94578e-07 -2.34469e-07 5.25869e-06 -5.45996e-07 1.00776e-07)
(4.72134e-05 -8.01809e-07 -3.62446e-07 6.75125e-06 -6.19535e-07 1.10698e-07)
(5.63586e-05 -8.23058e-07 -5.25525e-07 8.40248e-06 -6.86773e-07 1.2086e-07)
(6.64749e-05 -7.14466e-07 -7.18661e-07 1.01932e-05 -7.47402e-07 1.31095e-07)
(7.74188e-05 -4.3835e-07 -9.33961e-07 1.2106e-05 -8.01378e-07 1.41142e-07)
(8.90012e-05 3.0934e-08 -1.16114e-06 1.41249e-05 -8.487e-07 1.50655e-07)
(0.000101015 7.03733e-07 -1.38984e-06 1.62346e-05 -8.89154e-07 1.59331e-07)
(0.000113249 1.57727e-06 -1.61037e-06 1.84208e-05 -9.22344e-07 1.66933e-07)
(0.000125507 2.63376e-06 -1.81528e-06 2.06688e-05 -9.47715e-07 1.73344e-07)
(0.000137605 3.84696e-06 -1.99873e-06 2.2963e-05 -9.64751e-07 1.7855e-07)
(0.000149398 5.18172e-06 -2.15741e-06 2.52875e-05 -9.73165e-07 1.82697e-07)
(0.00016076 6.59926e-06 -2.28943e-06 2.7625e-05 -9.72818e-07 1.85946e-07)
(0.000171607 8.05908e-06 -2.39471e-06 2.99591e-05 -9.63775e-07 1.88436e-07)
(0.000181873 9.52104e-06 -2.47442e-06 3.22717e-05 -9.4631e-07 1.90358e-07)
(0.000191531 1.09483e-05 -2.53119e-06 3.45464e-05 -9.20932e-07 1.91967e-07)
(0.000200567 1.23085e-05 -2.56828e-06 3.6767e-05 -8.88373e-07 1.93491e-07)
(0.000208992 1.35763e-05 -2.58959e-06 3.89192e-05 -8.49592e-07 1.95126e-07)
(0.000216826 1.4732e-05 -2.59901e-06 4.09903e-05 -8.05809e-07 1.97053e-07)
(0.000224104 1.57643e-05 -2.6003e-06 4.29719e-05 -7.58513e-07 1.99435e-07)
(0.00023086 1.66652e-05 -2.59656e-06 4.4857e-05 -7.09188e-07 2.02365e-07)
(0.000237136 1.7434e-05 -2.58984e-06 4.66446e-05 -6.59186e-07 2.05825e-07)
(0.000242972 1.80709e-05 -2.58198e-06 4.8334e-05 -6.09678e-07 2.09788e-07)
(0.000248412 1.8579e-05 -2.57458e-06 4.99283e-05 -5.61324e-07 2.14227e-07)
(0.000253501 1.89629e-05 -2.5691e-06 5.14314e-05 -5.14665e-07 2.19125e-07)
(0.000258269 1.92309e-05 -2.5666e-06 5.28478e-05 -4.70089e-07 2.24499e-07)
(0.00026275 1.93927e-05 -2.56805e-06 5.41825e-05 -4.27954e-07 2.30369e-07)
(0.000266971 1.94594e-05 -2.57407e-06 5.5442e-05 -3.88762e-07 2.36721e-07)
(0.000270963 1.94433e-05 -2.58511e-06 5.66339e-05 -3.53041e-07 2.4352e-07)
(0.000274743 1.93541e-05 -2.60043e-06 5.77652e-05 -3.20736e-07 2.50637e-07)
(0.000278316 1.91993e-05 -2.61821e-06 5.88434e-05 -2.91223e-07 2.5786e-07)
(0.000281692 1.89845e-05 -2.63706e-06 5.98736e-05 -2.63872e-07 2.65082e-07)
(0.000284884 1.87109e-05 -2.65672e-06 6.08582e-05 -2.3808e-07 2.72445e-07)
(0.000287912 1.83798e-05 -2.67733e-06 6.1799e-05 -2.13429e-07 2.80114e-07)
(0.0002908 1.79953e-05 -2.70069e-06 6.26984e-05 -1.90582e-07 2.88191e-07)
(0.000293579 1.75627e-05 -2.72913e-06 6.3559e-05 -1.70617e-07 2.96746e-07)
(0.000296276 1.70907e-05 -2.76332e-06 6.43878e-05 -1.544e-07 3.05686e-07)
(0.000298919 1.65908e-05 -2.80218e-06 6.51966e-05 -1.42561e-07 3.14747e-07)
(0.000301534 1.60715e-05 -2.84426e-06 6.59968e-05 -1.35291e-07 3.23703e-07)
(0.000304139 1.55304e-05 -2.88724e-06 6.67984e-05 -1.314e-07 3.32507e-07)
(0.00030675 1.49629e-05 -2.92872e-06 6.76103e-05 -1.29424e-07 3.41138e-07)
(0.000309394 1.43625e-05 -2.96819e-06 6.84356e-05 -1.28215e-07 3.49603e-07)
(0.000312099 1.37214e-05 -3.00637e-06 6.92728e-05 -1.26829e-07 3.57921e-07)
(0.000314904 1.30364e-05 -3.04467e-06 7.01194e-05 -1.24614e-07 3.66183e-07)
(0.000317856 1.23145e-05 -3.08593e-06 7.09705e-05 -1.2161e-07 3.74646e-07)
(0.000321004 1.15647e-05 -3.13298e-06 7.18211e-05 -1.17996e-07 3.83566e-07)
(0.000324361 1.07984e-05 -3.18607e-06 7.26699e-05 -1.14332e-07 3.92899e-07)
(0.000327922 1.00283e-05 -3.24389e-06 7.35172e-05 -1.11406e-07 4.0243e-07)
(0.000331677 9.26507e-06 -3.30498e-06 7.43645e-05 -1.09872e-07 4.11998e-07)
(0.000335606 8.51498e-06 -3.36758e-06 7.52152e-05 -1.10057e-07 4.21579e-07)
(0.000339689 7.78306e-06 -3.43e-06 7.60727e-05 -1.12159e-07 4.3116e-07)
(0.00034393 7.06632e-06 -3.49227e-06 7.69374e-05 -1.15402e-07 4.40716e-07)
(0.000348345 6.35732e-06 -3.55545e-06 7.78078e-05 -1.18413e-07 4.50208e-07)
(0.000352948 5.65386e-06 -3.6208e-06 7.86814e-05 -1.20351e-07 4.59626e-07)
(0.000357737 4.96726e-06 -3.69002e-06 7.9553e-05 -1.21724e-07 4.69017e-07)
(0.000362708 4.31135e-06 -3.76481e-06 8.04173e-05 -1.23238e-07 4.78435e-07)
(0.000367855 3.70132e-06 -3.84552e-06 8.12741e-05 -1.25356e-07 4.87933e-07)
(0.000373168 3.15386e-06 -3.93151e-06 8.21262e-05 -1.28378e-07 4.97553e-07)
(0.00037862 2.68159e-06 -4.02121e-06 8.29773e-05 -1.32478e-07 5.07269e-07)
(0.000384129 2.2836e-06 -4.1103e-06 8.3834e-05 -1.37454e-07 5.1686e-07)
(0.000389607 1.9559e-06 -4.19404e-06 8.47034e-05 -1.43005e-07 5.26075e-07)
(0.000395004 1.68607e-06 -4.27099e-06 8.55857e-05 -1.48463e-07 5.35009e-07)
(0.000400314 1.45376e-06 -4.34281e-06 8.64758e-05 -1.52823e-07 5.44074e-07)
(0.000405526 1.23911e-06 -4.41089e-06 8.73691e-05 -1.55547e-07 5.53581e-07)
(0.000410615 1.02705e-06 -4.47515e-06 8.82668e-05 -1.58142e-07 5.63357e-07)
(0.000415551 8.03622e-07 -4.53512e-06 8.91712e-05 -1.62602e-07 5.73094e-07)
(0.00042034 5.59327e-07 -4.5911e-06 9.00823e-05 -1.68492e-07 5.82482e-07)
(0.000425024 2.90152e-07 -4.6443e-06 9.09972e-05 -1.72467e-07 5.91205e-07)
(0.000429641 -5.93747e-09 -4.69615e-06 9.19104e-05 -1.71524e-07 5.99073e-07)
(0.000434172 -3.2121e-07 -4.74886e-06 9.28033e-05 -1.65957e-07 6.06646e-07)
(0.000438577 -6.44064e-07 -4.80491e-06 9.36523e-05 -1.57266e-07 6.14751e-07)
(0.000442851 -9.60895e-07 -4.86603e-06 9.44495e-05 -1.47867e-07 6.23712e-07)
(0.000447037 -1.25502e-06 -4.93272e-06 9.52112e-05 -1.41574e-07 6.33052e-07)
(0.000451185 -1.51083e-06 -5.00498e-06 9.59558e-05 -1.41832e-07 6.42245e-07)
(0.000455331 -1.72655e-06 -5.08028e-06 9.66969e-05 -1.47668e-07 6.51028e-07)
(0.000459507 -1.90685e-06 -5.15477e-06 9.74466e-05 -1.56023e-07 6.59258e-07)
(0.000463709 -2.05856e-06 -5.2259e-06 9.821e-05 -1.63937e-07 6.66848e-07)
(0.000467864 -2.19266e-06 -5.29365e-06 9.89794e-05 -1.68771e-07 6.73834e-07)
(0.000471897 -2.31899e-06 -5.35842e-06 9.97448e-05 -1.68191e-07 6.80278e-07)
(0.000475787 -2.43036e-06 -5.4219e-06 0.000100493 -1.63068e-07 6.86404e-07)
(0.00047955 -2.50983e-06 -5.48649e-06 0.00010121 -1.56095e-07 6.9253e-07)
(0.00048318 -2.54854e-06 -5.55279e-06 0.000101883 -1.48878e-07 6.98801e-07)
(0.000486642 -2.55657e-06 -5.61725e-06 0.000102513 -1.40452e-07 7.04977e-07)
(0.000489893 -2.54544e-06 -5.67621e-06 0.0001031 -1.29713e-07 7.10787e-07)
(0.000492899 -2.51212e-06 -5.73136e-06 0.000103644 -1.18013e-07 7.16252e-07)
(0.000495631 -2.44463e-06 -5.78766e-06 0.000104142 -1.08223e-07 7.21575e-07)
(0.00049806 -2.34065e-06 -5.84512e-06 0.000104599 -1.02227e-07 7.26791e-07)
(0.000500144 -2.22031e-06 -5.89229e-06 0.000105034 -9.95199e-08 7.31544e-07)
(0.00050186 -2.10574e-06 -5.91779e-06 0.000105466 -9.93789e-08 7.3547e-07)
(0.000503317 -2.00341e-06 -5.92855e-06 0.000105907 -1.02262e-07 7.3872e-07)
(0.000504707 -1.91079e-06 -5.94214e-06 0.000106368 -1.09302e-07 7.41747e-07)
(0.000506161 -1.81956e-06 -5.96985e-06 0.000106856 -1.19981e-07 7.44946e-07)
(0.000507695 -1.71032e-06 -6.01002e-06 0.000107371 -1.30525e-07 7.48589e-07)
(0.000509296 -1.56519e-06 -6.05854e-06 0.00010791 -1.37405e-07 7.52876e-07)
(0.000510845 -1.39031e-06 -6.10503e-06 0.000108478 -1.42298e-07 7.57548e-07)
(0.000512178 -1.20295e-06 -6.13633e-06 0.000109079 -1.49172e-07 7.62135e-07)
(0.00051327 -1.02999e-06 -6.15067e-06 0.000109704 -1.57482e-07 7.66315e-07)
(0.000514295 -9.11439e-07 -6.16264e-06 0.00011033 -1.60249e-07 7.6998e-07)
(0.000515394 -8.74863e-07 -6.18531e-06 0.000110931 -1.52027e-07 7.73163e-07)
(0.000516466 -8.83644e-07 -6.2182e-06 0.000111482 -1.37102e-07 7.76455e-07)
(0.000517351 -8.84113e-07 -6.25682e-06 0.000111962 -1.22418e-07 7.80571e-07)
(0.000518008 -8.56576e-07 -6.29518e-06 0.000112376 -1.11531e-07 7.8536e-07)
(0.000518499 -8.10045e-07 -6.32599e-06 0.00011275 -1.05143e-07 7.89935e-07)
(0.000518902 -7.59453e-07 -6.34587e-06 0.000113107 -1.02682e-07 7.93659e-07)
(0.000519315 -7.3064e-07 -6.36051e-06 0.000113447 -1.00917e-07 7.96528e-07)
(0.000519818 -7.4482e-07 -6.37586e-06 0.00011377 -9.6566e-08 7.98617e-07)
(0.000520353 -7.82201e-07 -6.39126e-06 0.00011407 -8.87046e-08 7.99942e-07)
(0.000520811 -8.07152e-07 -6.40369e-06 0.000114342 -7.73335e-08 8.00527e-07)
(0.000521178 -7.9322e-07 -6.41467e-06 0.000114572 -6.29704e-08 8.00918e-07)
(0.000521528 -7.22805e-07 -6.42987e-06 0.000114738 -4.66127e-08 8.02145e-07)
(0.000521868 -6.1839e-07 -6.45033e-06 0.000114829 -2.92909e-08 8.04453e-07)
(0.000522065 -5.83751e-07 -6.46713e-06 0.000114857 -1.20322e-08 8.06424e-07)
(0.00052202 -6.52909e-07 -6.47319e-06 0.000114834 3.23879e-09 8.06904e-07)
(0.000521881 -4.94875e-07 -6.47587e-06 0.000114778 1.07062e-08 8.0695e-07)
(0.000521845 2.49748e-07 -6.48527e-06 0.000114711 4.56933e-09 8.08052e-07)
(0.000521895 1.14194e-06 -6.49649e-06 0.000114661 -8.91756e-09 8.09531e-07)
(1.19029e-06 -1.62262e-10 -4.48001e-09 3.28017e-10 -6.34718e-10 5.76828e-09)
(6.90537e-06 -9.86351e-09 -2.33213e-08 1.566e-08 -1.64858e-08 4.1391e-08)
(1.32655e-05 -4.13436e-08 -4.13436e-08 9.95897e-08 -7.42835e-08 9.95897e-08)
(1.94304e-05 -9.02925e-08 -5.7547e-08 3.29005e-07 -1.90214e-07 1.70623e-07)
(2.58917e-05 -1.56154e-07 -7.40051e-08 7.89367e-07 -3.6781e-07 2.45997e-07)
(3.33248e-05 -2.53979e-07 -9.5525e-08 1.56202e-06 -6.01294e-07 3.20094e-07)
(4.23262e-05 -4.07299e-07 -1.36427e-07 2.71296e-06 -8.78575e-07 3.89963e-07)
(5.3393e-05 -6.33309e-07 -2.21522e-07 4.28638e-06 -1.18447e-06 4.55015e-07)
(6.69298e-05 -9.27345e-07 -3.84293e-07 6.30038e-06 -1.50275e-06 5.16204e-07)
(8.32421e-05 -1.25338e-06 -6.5863e-07 8.74946e-06 -1.81942e-06 5.75443e-07)
(0.000102515 -1.54415e-06 -1.07066e-06 1.16101e-05 -2.12389e-06 6.3454e-07)
(0.0001248 -1.70895e-06 -1.63346e-06 1.48489e-05 -2.40921e-06 6.94545e-07)
(0.000149972 -1.64391e-06 -2.34235e-06 1.84252e-05 -2.67191e-06 7.5535e-07)
(0.000177746 -1.25176e-06 -3.17549e-06 2.2299e-05 -2.91041e-06 8.15949e-07)
(0.000207729 -4.51374e-07 -4.10016e-06 2.64344e-05 -3.1241e-06 8.74782e-07)
(0.000239412 8.0988e-07 -5.07568e-06 3.07981e-05 -3.31247e-06 9.29878e-07)
(0.000272241 2.55042e-06 -6.06098e-06 3.53584e-05 -3.47428e-06 9.79517e-07)
(0.000305654 4.75979e-06 -7.01744e-06 4.00861e-05 -3.60778e-06 1.02238e-06)
(0.000339127 7.39524e-06 -7.91524e-06 4.49515e-05 -3.71108e-06 1.05793e-06)
(0.000372178 1.03954e-05 -8.73069e-06 4.99239e-05 -3.78246e-06 1.08619e-06)
(0.000404416 1.36792e-05 -9.44936e-06 5.49721e-05 -3.82088e-06 1.10796e-06)
(0.00043551 1.71571e-05 -1.00624e-05 6.00622e-05 -3.82574e-06 1.12417e-06)
(0.000465237 2.07361e-05 -1.05686e-05 6.5162e-05 -3.79715e-06 1.13573e-06)
(0.000493422 2.43239e-05 -1.09717e-05 7.02351e-05 -3.73592e-06 1.14382e-06)
(0.000519987 2.78356e-05 -1.12812e-05 7.52481e-05 -3.64373e-06 1.14994e-06)
(0.000544894 3.11966e-05 -1.15091e-05 8.01669e-05 -3.52313e-06 1.15548e-06)
(0.000568169 3.43475e-05 -1.16704e-05 8.4961e-05 -3.37755e-06 1.16168e-06)
(0.000589857 3.72413e-05 -1.17797e-05 8.96028e-05 -3.21135e-06 1.16966e-06)
(0.000610043 3.98482e-05 -1.18513e-05 9.4072e-05 -3.02978e-06 1.18046e-06)
(0.00062881 4.21463e-05 -1.18972e-05 9.83511e-05 -2.8382e-06 1.19466e-06)
(0.000646269 4.41295e-05 -1.19258e-05 0.000102434 -2.64153e-06 1.21225e-06)
(0.000662523 4.57937e-05 -1.19448e-05 0.000106314 -2.44425e-06 1.23309e-06)
(0.000677682 4.71422e-05 -1.19607e-05 0.000109992 -2.24923e-06 1.25699e-06)
(0.000691859 4.81823e-05 -1.19796e-05 0.000113472 -2.05894e-06 1.28378e-06)
(0.00070514 4.89306e-05 -1.20067e-05 0.000116759 -1.87519e-06 1.3135e-06)
(0.000717608 4.94076e-05 -1.20465e-05 0.000119861 -1.69961e-06 1.34619e-06)
(0.000729338 4.96369e-05 -1.21018e-05 0.000122788 -1.53418e-06 1.38173e-06)
(0.000740406 4.96441e-05 -1.21742e-05 0.000125551 -1.38088e-06 1.4199e-06)
(0.000750857 4.94518e-05 -1.22622e-05 0.000128166 -1.24005e-06 1.46e-06)
(0.000760718 4.90799e-05 -1.23606e-05 0.000130644 -1.11043e-06 1.50095e-06)
(0.000770014 4.85449e-05 -1.24653e-05 0.000132998 -9.90588e-07 1.54211e-06)
(0.000778786 4.78563e-05 -1.25744e-05 0.000135238 -8.78926e-07 1.58402e-06)
(0.000787076 4.7023e-05 -1.26875e-05 0.000137368 -7.74221e-07 1.62738e-06)
(0.000794954 4.60549e-05 -1.28103e-05 0.000139397 -6.77741e-07 1.67286e-06)
(0.000802498 4.49632e-05 -1.29508e-05 0.000141329 -5.91763e-07 1.72106e-06)
(0.000809781 4.37665e-05 -1.31116e-05 0.000143178 -5.18911e-07 1.77161e-06)
(0.000816879 4.24907e-05 -1.32897e-05 0.000144965 -4.62132e-07 1.8231e-06)
(0.00082386 4.11559e-05 -1.34804e-05 0.000146711 -4.22803e-07 1.87424e-06)
(0.000830786 3.97592e-05 -1.36749e-05 0.000148438 -3.97143e-07 1.92443e-06)
(0.000837713 3.82941e-05 -1.38638e-05 0.000150168 -3.80348e-07 1.97319e-06)
(0.000844718 3.67492e-05 -1.40456e-05 0.000151907 -3.68364e-07 2.02062e-06)
(0.000851884 3.51117e-05 -1.42241e-05 0.000153656 -3.57639e-07 2.06722e-06)
(0.000859312 3.33767e-05 -1.44051e-05 0.000155411 -3.45734e-07 2.11373e-06)
(0.000867129 3.15619e-05 -1.45983e-05 0.000157167 -3.32907e-07 2.16133e-06)
(0.00087546 2.96883e-05 -1.48137e-05 0.00015892 -3.19902e-07 2.21122e-06)
(0.000884343 2.77802e-05 -1.50523e-05 0.000160669 -3.08474e-07 2.26328e-06)
(0.000893761 2.58644e-05 -1.53103e-05 0.000162416 -3.00987e-07 2.3166e-06)
(0.00090369 2.39641e-05 -1.55826e-05 0.000164165 -2.99282e-07 2.37042e-06)
(0.00091409 2.20936e-05 -1.58628e-05 0.000165924 -3.03967e-07 2.4243e-06)
(0.000924919 2.02652e-05 -1.61444e-05 0.000167697 -3.152e-07 2.47782e-06)
(0.000936169 1.84748e-05 -1.64259e-05 0.000169486 -3.30045e-07 2.53075e-06)
(0.000947849 1.67093e-05 -1.67083e-05 0.000171283 -3.43662e-07 2.58294e-06)
(0.000959976 1.49655e-05 -1.69953e-05 0.000173082 -3.52901e-07 2.63444e-06)
(0.000972587 1.32654e-05 -1.72961e-05 0.00017487 -3.58927e-07 2.68581e-06)
(0.000985715 1.16366e-05 -1.76202e-05 0.000176633 -3.63625e-07 2.73765e-06)
(0.00099933 1.01128e-05 -1.79685e-05 0.00017837 -3.69434e-07 2.79026e-06)
(0.00101335 8.73367e-06 -1.83356e-05 0.000180088 -3.79216e-07 2.84373e-06)
(0.00102767 7.52989e-06 -1.87137e-05 0.000181796 -3.94971e-07 2.89777e-06)
(0.0010421 6.50078e-06 -1.90888e-05 0.000183512 -4.15906e-07 2.95106e-06)
(0.00105647 5.63872e-06 -1.94457e-05 0.000185253 -4.40609e-07 3.00215e-06)
(0.00107065 4.91587e-06 -1.97787e-05 0.000187025 -4.66457e-07 3.05143e-06)
(0.0010846 4.28548e-06 -2.00903e-05 0.00018882 -4.8973e-07 3.10098e-06)
(0.00109828 3.70117e-06 -2.03833e-05 0.000190633 -5.07925e-07 3.15241e-06)
(0.00111164 3.12478e-06 -2.06591e-05 0.000192461 -5.24031e-07 3.20494e-06)
(0.00112463 2.52019e-06 -2.09186e-05 0.000194301 -5.42347e-07 3.25715e-06)
(0.00113729 1.87126e-06 -2.11659e-05 0.000196145 -5.61638e-07 3.30754e-06)
(0.00114969 1.18616e-06 -2.14082e-05 0.000197982 -5.74035e-07 3.35454e-06)
(0.00116193 4.7585e-07 -2.16525e-05 0.000199798 -5.72624e-07 3.39721e-06)
(0.00117396 -2.42107e-07 -2.19023e-05 0.00020157 -5.59066e-07 3.43841e-06)
(0.00118565 -9.47067e-07 -2.21601e-05 0.00020327 -5.38164e-07 3.48237e-06)
(0.00119698 -1.622e-06 -2.24286e-05 0.000204891 -5.1693e-07 3.53072e-06)
(0.00120805 -2.25543e-06 -2.27109e-05 0.000206458 -5.05712e-07 3.58103e-06)
(0.00121894 -2.83664e-06 -2.30087e-05 0.000207997 -5.13685e-07 3.63056e-06)
(0.00122977 -3.36036e-06 -2.33147e-05 0.000209527 -5.3702e-07 3.67778e-06)
(0.00124061 -3.82376e-06 -2.36165e-05 0.000211068 -5.6573e-07 3.72163e-06)
(0.00125148 -4.22898e-06 -2.39068e-05 0.000212626 -5.90838e-07 3.76161e-06)
(0.00126223 -4.58819e-06 -2.41871e-05 0.000214183 -6.05713e-07 3.79822e-06)
(0.00127271 -4.91182e-06 -2.44603e-05 0.000215719 -6.04696e-07 3.83216e-06)
(0.00128284 -5.18164e-06 -2.47307e-05 0.000217214 -5.90458e-07 3.86469e-06)
(0.00129263 -5.36298e-06 -2.50033e-05 0.000218651 -5.70409e-07 3.89742e-06)
(0.00130204 -5.43655e-06 -2.52782e-05 0.000220016 -5.48879e-07 3.93093e-06)
(0.001311 -5.41931e-06 -2.55453e-05 0.000221307 -5.22935e-07 3.96353e-06)
(0.00131945 -5.3323e-06 -2.57936e-05 0.000222524 -4.89344e-07 3.99342e-06)
(0.00132725 -5.18319e-06 -2.60254e-05 0.000223666 -4.52872e-07 4.02135e-06)
(0.0013343 -4.97159e-06 -2.6251e-05 0.000224729 -4.23234e-07 4.04967e-06)
(0.0013405 -4.70777e-06 -2.64691e-05 0.000225723 -4.0716e-07 4.07905e-06)
(0.00134587 -4.42637e-06 -2.66514e-05 0.000226687 -4.04124e-07 4.10628e-06)
(0.00135046 -4.16374e-06 -2.67704e-05 0.00022766 -4.12562e-07 4.12795e-06)
(0.00135454 -3.93242e-06 -2.68491e-05 0.000228663 -4.30762e-07 4.14497e-06)
(0.00135847 -3.73129e-06 -2.69392e-05 0.000229707 -4.56888e-07 4.16067e-06)
(0.00136251 -3.54538e-06 -2.70729e-05 0.000230795 -4.87648e-07 4.17782e-06)
(0.00136659 -3.33314e-06 -2.72414e-05 0.000231925 -5.16984e-07 4.19789e-06)
(0.00137063 -3.05617e-06 -2.7429e-05 0.000233093 -5.39559e-07 4.22181e-06)
(0.00137443 -2.72911e-06 -2.76062e-05 0.000234307 -5.58676e-07 4.24739e-06)
(0.00137777 -2.39088e-06 -2.77374e-05 0.00023558 -5.81391e-07 4.27101e-06)
(0.00138062 -2.08563e-06 -2.78198e-05 0.000236897 -6.04413e-07 4.29103e-06)
(0.00138331 -1.8639e-06 -2.78982e-05 0.000238205 -6.09741e-07 4.30862e-06)
(0.00138607 -1.75828e-06 -2.80116e-05 0.000239449 -5.83619e-07 4.32542e-06)
(0.00138867 -1.71346e-06 -2.8154e-05 0.000240595 -5.38053e-07 4.34401e-06)
(0.00139077 -1.65171e-06 -2.83061e-05 0.000241614 -4.92109e-07 4.36702e-06)
(0.00139232 -1.55911e-06 -2.84483e-05 0.000242519 -4.55777e-07 4.39293e-06)
(0.00139348 -1.47577e-06 -2.85601e-05 0.000243352 -4.31417e-07 4.41669e-06)
(0.00139444 -1.43962e-06 -2.8634e-05 0.000244141 -4.17194e-07 4.4349e-06)
(0.00139542 -1.47868e-06 -2.86924e-05 0.000244879 -4.02405e-07 4.44826e-06)
(0.00139661 -1.60724e-06 -2.87583e-05 0.000245553 -3.7663e-07 4.45796e-06)
(0.00139794 -1.75951e-06 -2.8832e-05 0.000246157 -3.40146e-07 4.46435e-06)
(0.00139925 -1.83947e-06 -2.89058e-05 0.000246685 -2.97229e-07 4.46764e-06)
(0.00140046 -1.79182e-06 -2.89791e-05 0.000247124 -2.49255e-07 4.47029e-06)
(0.00140154 -1.59987e-06 -2.90585e-05 0.000247457 -1.94878e-07 4.47686e-06)
(0.0014024 -1.33067e-06 -2.91408e-05 0.000247672 -1.34544e-07 4.48842e-06)
(0.00140283 -1.21895e-06 -2.92021e-05 0.000247779 -7.25741e-08 4.49865e-06)
(0.00140272 -1.34288e-06 -2.92257e-05 0.000247792 -1.69269e-08 4.50237e-06)
(0.00140245 -9.69322e-07 -2.92404e-05 0.000247741 1.07685e-08 4.50414e-06)
(0.0014025 6.96256e-07 -2.92824e-05 0.000247665 -1.053e-08 4.51041e-06)
(0.00140275 2.65737e-06 -2.933e-05 0.000247606 -5.4119e-08 4.51785e-06)
(1.48192e-06 -2.67126e-10 -8.21581e-09 4.89958e-10 -1.80466e-09 1.9042e-08)
(9.35966e-06 -1.32627e-08 -4.68524e-08 2.68366e-08 -4.48059e-08 1.38871e-07)
(1.94304e-05 -5.7547e-08 -9.02925e-08 1.70623e-07 -1.90214e-07 3.29005e-07)
(3.04165e-05 -1.32446e-07 -1.32446e-07 5.56846e-07 -4.69684e-07 5.56846e-07)
(4.27789e-05 -2.41902e-07 -1.75799e-07 1.31701e-06 -8.87536e-07 7.96871e-07)
(5.74006e-05 -4.09236e-07 -2.35634e-07 2.57178e-06 -1.42889e-06 1.03201e-06)
(7.51702e-05 -6.65388e-07 -3.51511e-07 4.41603e-06 -2.06617e-06 1.25305e-06)
(9.68948e-05 -1.0254e-06 -5.88576e-07 6.91054e-06 -2.76601e-06 1.45823e-06)
(0.000123248 -1.46636e-06 -1.02789e-06 1.00768e-05 -3.49371e-06 1.65053e-06)