/*--------------------------------*- C++ -*----------------------------------*\
| =========                 |                                                 |
| \\      /  F ield         | OpenFOAM: The Open Source CFD Toolbox           |
|  \\    /   O peration     | Version:  2306                                  |
|   \\  /    A nd           | Website:  www.openfoam.com                      |
|    \\/     M anipulation  |                                                 |
\*---------------------------------------------------------------------------*/
// * * * * * * * * * * * * * * * * * * * * * * * * * * * * * * * * * * * * * //
FoamFile
{
    version         2;
    format          ascii;
    class           volSymmTensorField;
    location        "98.96";
    object          Rrans;
}

dimensions      [ 0 2 -2 0 0 0 0 ];

internalField   nonuniform List<symmTensor> 
15625
(
(0.000294995 -4.99002e-06 -4.99002e-06 0.000294995 3.32122e-18 0.000294995)
(0.000338102 -4.45318e-06 -1.40125e-05 0.000338102 1.53014e-18 0.000338102)
(0.000420877 -4.60387e-06 -2.46192e-05 0.000420877 1.23327e-18 0.000420877)
(0.000529295 -4.86882e-06 -3.71031e-05 0.000529295 1.06811e-18 0.000529295)
(0.000650769 -5.09504e-06 -5.10646e-05 0.000650769 8.7304e-19 0.000650769)
(0.000776407 -5.2246e-06 -6.59392e-05 0.000776407 6.97619e-19 0.000776407)
(0.00090068 -5.2517e-06 -8.12236e-05 0.00090068 5.60426e-19 0.00090068)
(0.00102049 -5.19491e-06 -9.65394e-05 0.00102049 4.53373e-19 0.00102049)
(0.00113437 -5.0798e-06 -0.000111634 0.00113437 3.67832e-19 0.00113437)
(0.00124181 -4.92879e-06 -0.000126354 0.00124181 2.98434e-19 0.00124181)
(0.00134285 -4.75866e-06 -0.000140618 0.00134285 2.4068e-19 0.00134285)
(0.00143782 -4.5813e-06 -0.00015439 0.00143782 1.91068e-19 0.00143782)
(0.00152719 -4.40419e-06 -0.000167662 0.00152719 1.48649e-19 0.00152719)
(0.00161144 -4.23157e-06 -0.000180446 0.00161144 1.12477e-19 0.00161144)
(0.00169103 -4.06615e-06 -0.00019276 0.00169103 8.20864e-20 0.00169103)
(0.00176641 -3.90858e-06 -0.000204628 0.00176641 5.54546e-20 0.00176641)
(0.00183797 -3.75903e-06 -0.000216074 0.00183797 3.24628e-20 0.00183797)
(0.00190606 -3.61803e-06 -0.000227123 0.00190606 1.42386e-20 0.00190606)
(0.00197098 -3.48497e-06 -0.000237798 0.00197098 -4.11416e-21 0.00197098)
(0.002033 -3.35932e-06 -0.000248121 0.002033 -2.04273e-20 0.002033)
(0.00209237 -3.24079e-06 -0.000258114 0.00209237 -3.2803e-20 0.00209237)
(0.00214929 -3.12848e-06 -0.000267795 0.00214929 -4.3898e-20 0.00214929)
(0.00220395 -3.02246e-06 -0.000277182 0.00220395 -5.29347e-20 0.00220395)
(0.00225651 -2.92203e-06 -0.00028629 0.00225651 -6.16027e-20 0.00225651)
(0.00230713 -2.82667e-06 -0.000295135 0.00230713 -7.02062e-20 0.00230713)
(0.00235594 -2.7363e-06 -0.000303731 0.00235594 -7.94906e-20 0.00235594)
(0.00240305 -2.65017e-06 -0.00031209 0.00240305 -8.84298e-20 0.00240305)
(0.00244858 -2.56837e-06 -0.000320224 0.00244858 -9.5837e-20 0.00244858)
(0.00249262 -2.4906e-06 -0.000328143 0.00249262 -1.02801e-19 0.00249262)
(0.00253525 -2.41625e-06 -0.000335859 0.00253525 -1.08733e-19 0.00253525)
(0.00257657 -2.34466e-06 -0.000343379 0.00257657 -1.1317e-19 0.00257657)
(0.00261663 -2.27688e-06 -0.000350713 0.00261663 -1.1707e-19 0.00261663)
(0.00265552 -2.21191e-06 -0.00035787 0.00265552 -1.22004e-19 0.00265552)
(0.00269329 -2.14929e-06 -0.000364854 0.00269329 -1.25462e-19 0.00269329)
(0.00272999 -2.08973e-06 -0.000371675 0.00272999 -1.31041e-19 0.00272999)
(0.00276568 -2.03215e-06 -0.000378339 0.00276568 -1.39147e-19 0.00276568)
(0.00280041 -1.97693e-06 -0.000384851 0.00280041 -1.43233e-19 0.00280041)
(0.00283422 -1.92416e-06 -0.000391218 0.00283422 -1.46497e-19 0.00283422)
(0.00286715 -1.87301e-06 -0.000397446 0.00286715 -1.49468e-19 0.00286715)
(0.00289925 -1.82384e-06 -0.000403537 0.00289925 -1.50572e-19 0.00289925)
(0.00293054 -1.77641e-06 -0.000409498 0.00293054 -1.5123e-19 0.00293054)
(0.00296107 -1.73045e-06 -0.000415333 0.00296107 -1.53749e-19 0.00296107)
(0.00299085 -1.68662e-06 -0.000421047 0.00299085 -1.5728e-19 0.00299085)
(0.00301993 -1.64405e-06 -0.000426642 0.00301993 -1.57339e-19 0.00301993)
(0.00304832 -1.60247e-06 -0.000432124 0.00304832 -1.58251e-19 0.00304832)
(0.00307606 -1.56252e-06 -0.000437495 0.00307606 -1.63494e-19 0.00307606)
(0.00310316 -1.52421e-06 -0.000442758 0.00310316 -1.65598e-19 0.00310316)
(0.00312965 -1.48667e-06 -0.000447918 0.00312965 -1.62399e-19 0.00312965)
(0.00315555 -1.45022e-06 -0.000452976 0.00315555 -1.58567e-19 0.00315555)
(0.00318089 -1.41519e-06 -0.000457937 0.00318089 -1.56657e-19 0.00318089)
(0.00320567 -1.38097e-06 -0.000462801 0.00320567 -1.57802e-19 0.00320567)
(0.00322992 -1.3479e-06 -0.000467572 0.00322992 -1.56656e-19 0.00322992)
(0.00325365 -1.31568e-06 -0.000472252 0.00325365 -1.55924e-19 0.00325365)
(0.00327687 -1.28432e-06 -0.000476845 0.00327687 -1.54615e-19 0.00327687)
(0.00329961 -1.25384e-06 -0.00048135 0.00329961 -1.51993e-19 0.00329961)
(0.00332188 -1.22424e-06 -0.000485771 0.00332188 -1.54589e-19 0.00332188)
(0.00334369 -1.19524e-06 -0.00049011 0.00334369 -1.58348e-19 0.00334369)
(0.00336504 -1.16713e-06 -0.000494367 0.00336504 -1.60706e-19 0.00336504)
(0.00338596 -1.13964e-06 -0.000498546 0.00338596 -1.6411e-19 0.00338596)
(0.00340645 -1.11275e-06 -0.000502647 0.00340645 -1.66233e-19 0.00340645)
(0.00342653 -1.08678e-06 -0.000506673 0.00342653 -1.63295e-19 0.00342653)
(0.00344621 -1.06115e-06 -0.000510625 0.00344621 -1.63472e-19 0.00344621)
(0.00346548 -1.03614e-06 -0.000514503 0.00346548 -1.69334e-19 0.00346548)
(0.00348437 -1.01176e-06 -0.00051831 0.00348437 -1.73496e-19 0.00348437)
(0.00350288 -9.88017e-07 -0.000522046 0.00350288 -1.73572e-19 0.00350288)
(0.00352101 -9.64907e-07 -0.000525714 0.00352101 -1.70787e-19 0.00352101)
(0.00353879 -9.41866e-07 -0.000529313 0.00353879 -1.66906e-19 0.00353879)
(0.00355621 -9.1946e-07 -0.000532844 0.00355621 -1.6462e-19 0.00355621)
(0.00357327 -8.97698e-07 -0.000536311 0.00357327 -1.6411e-19 0.00357327)
(0.00358999 -8.7601e-07 -0.000539712 0.00358999 -1.65821e-19 0.00358999)
(0.00360637 -8.54963e-07 -0.000543049 0.00360637 -1.66576e-19 0.00360637)
(0.00362242 -8.34276e-07 -0.000546322 0.00362242 -1.61007e-19 0.00362242)
(0.00363815 -8.13953e-07 -0.000549533 0.00363815 -1.60584e-19 0.00363815)
(0.00365354 -7.94269e-07 -0.000552681 0.00365354 -1.59528e-19 0.00365354)
(0.00366862 -7.74672e-07 -0.000555769 0.00366862 -1.51772e-19 0.00366862)
(0.00368339 -7.55163e-07 -0.000558795 0.00368339 -1.51435e-19 0.00368339)
(0.00369785 -7.36294e-07 -0.000561762 0.00369785 -1.53403e-19 0.00369785)
(0.00371199 -7.17519e-07 -0.000564669 0.00371199 -1.58117e-19 0.00371199)
(0.00372585 -6.99108e-07 -0.000567517 0.00372585 -1.63316e-19 0.00372585)
(0.00373939 -6.81333e-07 -0.000570306 0.00373939 -1.58054e-19 0.00373939)
(0.00375265 -6.63383e-07 -0.000573038 0.00375265 -1.53396e-19 0.00375265)
(0.0037656 -6.45798e-07 -0.000575711 0.0037656 -1.4979e-19 0.0037656)
(0.00377827 -6.28579e-07 -0.000578328 0.00377827 -1.47024e-19 0.00377827)
(0.00379065 -6.11192e-07 -0.000580887 0.00379065 -1.46425e-19 0.00379065)
(0.00380274 -5.94435e-07 -0.000583389 0.00380274 -1.41328e-19 0.00380274)
(0.00381455 -5.78045e-07 -0.000585835 0.00381455 -1.38e-19 0.00381455)
(0.00382608 -5.61489e-07 -0.000588223 0.00382608 -1.3738e-19 0.00382608)
(0.00383732 -5.45037e-07 -0.000590557 0.00383732 -1.38793e-19 0.00383732)
(0.00384829 -5.28948e-07 -0.000592834 0.00384829 -1.35222e-19 0.00384829)
(0.00385897 -5.12965e-07 -0.000595054 0.00385897 -1.25622e-19 0.00385897)
(0.00386939 -4.97344e-07 -0.00059722 0.00386939 -1.15831e-19 0.00386939)
(0.00387952 -4.81829e-07 -0.000599326 0.00387952 -1.07138e-19 0.00387952)
(0.00388937 -4.66162e-07 -0.000601382 0.00388937 -1.04401e-19 0.00388937)
(0.00389896 -4.51113e-07 -0.000603377 0.00389896 -1.01749e-19 0.00389896)
(0.00390827 -4.35918e-07 -0.000605321 0.00390827 -9.90623e-20 0.00390827)
(0.00391729 -4.20577e-07 -0.000607204 0.00391729 -1.02408e-19 0.00391729)
(0.00392605 -4.05851e-07 -0.000609034 0.00392605 -1.07077e-19 0.00392605)
(0.00393453 -3.90986e-07 -0.000610805 0.00393453 -1.07158e-19 0.00393453)
(0.00394274 -3.76228e-07 -0.000612522 0.00394274 -9.8768e-20 0.00394274)
(0.00395067 -3.61586e-07 -0.000614183 0.00395067 -8.9605e-20 0.00395067)
(0.00395833 -3.47055e-07 -0.000615782 0.00395833 -8.10816e-20 0.00395833)
(0.0039657 -3.32641e-07 -0.000617328 0.0039657 -7.54567e-20 0.0039657)
(0.00397279 -3.18094e-07 -0.000618816 0.00397279 -7.13228e-20 0.00397279)
(0.00397961 -3.0391e-07 -0.000620246 0.00397961 -6.08605e-20 0.00397961)
(0.00398615 -2.896e-07 -0.000621614 0.00398615 -5.54361e-20 0.00398615)
(0.00399241 -2.75167e-07 -0.000622928 0.00399241 -5.40727e-20 0.00399241)
(0.00399837 -2.61095e-07 -0.000624183 0.00399837 -4.56904e-20 0.00399837)
(0.00400405 -2.47145e-07 -0.000625377 0.00400405 -4.08462e-20 0.00400405)
(0.00400945 -2.33078e-07 -0.000626509 0.00400945 -3.87586e-20 0.00400945)
(0.00401455 -2.18898e-07 -0.000627585 0.00401455 -3.15585e-20 0.00401455)
(0.00401937 -2.04844e-07 -0.000628595 0.00401937 -2.73118e-20 0.00401937)
(0.00402388 -1.90919e-07 -0.000629546 0.00402388 -2.64029e-20 0.00402388)
(0.0040281 -1.76654e-07 -0.00063043 0.0040281 -3.04529e-20 0.0040281)
(0.00403202 -1.62753e-07 -0.000631257 0.00403202 -2.79673e-20 0.00403202)
(0.00403563 -1.48986e-07 -0.000632015 0.00403563 -2.1395e-20 0.00403563)
(0.00403893 -1.3489e-07 -0.000632714 0.00403893 -1.63655e-20 0.00403893)
(0.00404193 -1.20703e-07 -0.000633345 0.00404193 -1.16137e-20 0.00404193)
(0.00404461 -1.06655e-07 -0.000633909 0.00404461 -1.93418e-20 0.00404461)
(0.00404697 -9.25223e-08 -0.000634403 0.00404697 -2.76117e-20 0.00404697)
(0.00404901 -7.85306e-08 -0.000634834 0.00404901 -2.69301e-20 0.00404901)
(0.00405072 -6.44621e-08 -0.000635196 0.00405072 -2.65406e-20 0.00405072)
(0.0040521 -5.00925e-08 -0.000635486 0.0040521 -2.12117e-20 0.0040521)
(0.00405314 -3.58762e-08 -0.000635707 0.00405314 -1.63171e-20 0.00405314)
(0.00405384 -2.15915e-08 -0.000635856 0.00405384 -6.94996e-21 0.00405384)
(0.00405419 -7.24401e-09 -0.000635929 0.00405419 -2.71922e-21 0.00405419)
(0.000338102 -1.40125e-05 -4.45318e-06 0.000338102 1.53094e-18 0.000338102)
(0.000281099 -1.2345e-05 -1.2345e-05 0.000281099 -1.94337e-18 0.000281099)
(0.000293527 -1.2264e-05 -2.11527e-05 0.000293527 -8.55884e-19 0.000293527)
(0.000339113 -1.24476e-05 -3.1124e-05 0.000339113 -3.26152e-19 0.000339113)
(0.000400474 -1.26982e-05 -4.23969e-05 0.000400474 -5.07544e-20 0.000400474)
(0.000468182 -1.2844e-05 -5.46537e-05 0.000468182 9.68876e-20 0.000468182)
(0.000536987 -1.28147e-05 -6.74133e-05 0.000536987 1.70553e-19 0.000536987)
(0.000604084 -1.26206e-05 -8.02714e-05 0.000604084 1.95134e-19 0.000604084)
(0.000668127 -1.23051e-05 -9.29575e-05 0.000668127 1.9296e-19 0.000668127)
(0.000728593 -1.19139e-05 -0.000105314 0.000728593 1.7895e-19 0.000728593)
(0.00078542 -1.14839e-05 -0.000117263 0.00078542 1.60633e-19 0.00078542)
(0.00083878 -1.10409e-05 -0.000128775 0.00083878 1.40168e-19 0.00083878)
(0.000888927 -1.06013e-05 -0.000139847 0.000888927 1.19681e-19 0.000888927)
(0.000936147 -1.01746e-05 -0.000150493 0.000936147 1.01086e-19 0.000936147)
(0.000980733 -9.76636e-06 -0.000160735 0.000980733 8.53089e-20 0.000980733)
(0.00102294 -9.37848e-06 -0.000170593 0.00102294 7.06318e-20 0.00102294)
(0.00106301 -9.01158e-06 -0.000180095 0.00106301 5.7592e-20 0.00106301)
(0.00110113 -8.66564e-06 -0.000189262 0.00110113 4.86598e-20 0.00110113)
(0.00113751 -8.33997e-06 -0.000198117 0.00113751 3.7677e-20 0.00113751)
(0.00117228 -8.03282e-06 -0.000206678 0.00117228 2.68903e-20 0.00117228)
(0.00120559 -7.74314e-06 -0.000214967 0.00120559 1.95194e-20 0.00120559)
(0.00123756 -7.47011e-06 -0.000222998 0.00123756 1.11909e-20 0.00123756)
(0.0012683 -7.21182e-06 -0.000230789 0.0012683 4.11111e-21 0.0012683)
(0.00129791 -6.96749e-06 -0.000238352 0.00129791 8.45372e-23 0.00129791)
(0.00132645 -6.73656e-06 -0.0002457 0.00132645 -5.10829e-21 0.00132645)
(0.00135402 -6.51735e-06 -0.000252847 0.00135402 -1.21203e-20 0.00135402)
(0.00138067 -6.30901e-06 -0.000259802 0.00138067 -1.89122e-20 0.00138067)
(0.00140647 -6.11113e-06 -0.000266579 0.00140647 -2.49537e-20 0.00140647)
(0.00143147 -5.92278e-06 -0.00027318 0.00143147 -3.02173e-20 0.00143147)
(0.00145571 -5.74326e-06 -0.000279616 0.00145571 -3.33438e-20 0.00145571)
(0.00147925 -5.57199e-06 -0.0002859 0.00147925 -3.46901e-20 0.00147925)
(0.00150212 -5.40863e-06 -0.000292031 0.00150212 -3.78951e-20 0.00150212)
(0.00152435 -5.25218e-06 -0.000298021 0.00152435 -4.43006e-20 0.00152435)
(0.00154599 -5.1024e-06 -0.000303875 0.00154599 -4.74198e-20 0.00154599)
(0.00156707 -4.95909e-06 -0.0003096 0.00156707 -4.77031e-20 0.00156707)
(0.0015876 -4.82134e-06 -0.0003152 0.0015876 -5.29513e-20 0.0015876)
(0.00160761 -4.68939e-06 -0.000320678 0.00160761 -5.83184e-20 0.00160761)
(0.00162715 -4.56261e-06 -0.000326041 0.00162715 -6.01993e-20 0.00162715)
(0.00164621 -4.44029e-06 -0.000331294 0.00164621 -6.09906e-20 0.00164621)
(0.00166482 -4.32289e-06 -0.000336438 0.00166482 -6.27395e-20 0.00166482)
(0.001683 -4.20997e-06 -0.000341479 0.001683 -6.34308e-20 0.001683)
(0.00170077 -4.10079e-06 -0.000346424 0.00170077 -6.56901e-20 0.00170077)
(0.00171815 -3.99546e-06 -0.00035127 0.00171815 -7.02092e-20 0.00171815)
(0.00173515 -3.89409e-06 -0.00035602 0.00173515 -7.03969e-20 0.00173515)
(0.00175179 -3.79586e-06 -0.000360683 0.00175179 -7.0832e-20 0.00175179)
(0.00176807 -3.70087e-06 -0.000365259 0.00176807 -7.33795e-20 0.00176807)
(0.00178401 -3.6092e-06 -0.000369746 0.00178401 -7.6065e-20 0.00178401)
(0.00179963 -3.52031e-06 -0.000374151 0.00179963 -7.55841e-20 0.00179963)
(0.00181493 -3.43396e-06 -0.000378481 0.00181493 -7.3084e-20 0.00181493)
(0.00182991 -3.3505e-06 -0.000382726 0.00182991 -7.27796e-20 0.00182991)
(0.00184461 -3.2694e-06 -0.000386898 0.00184461 -7.45201e-20 0.00184461)
(0.00185901 -3.19068e-06 -0.000390995 0.00185901 -7.50958e-20 0.00185901)
(0.00187314 -3.11439e-06 -0.000395021 0.00187314 -7.52213e-20 0.00187314)
(0.00188699 -3.04025e-06 -0.000398975 0.00188699 -7.60109e-20 0.00188699)
(0.00190057 -2.96802e-06 -0.00040286 0.00190057 -7.66148e-20 0.00190057)
(0.00191391 -2.89771e-06 -0.000406679 0.00191391 -7.90943e-20 0.00191391)
(0.00192698 -2.82936e-06 -0.000410431 0.00192698 -8.25909e-20 0.00192698)
(0.00193981 -2.76238e-06 -0.000414116 0.00193981 -8.61362e-20 0.00193981)
(0.00195241 -2.6974e-06 -0.000417741 0.00195241 -8.58177e-20 0.00195241)
(0.00196476 -2.63442e-06 -0.000421302 0.00196476 -8.54406e-20 0.00196476)
(0.00197689 -2.5726e-06 -0.000424802 0.00197689 -8.54007e-20 0.00197689)
(0.00198879 -2.51193e-06 -0.000428239 0.00198879 -8.83395e-20 0.00198879)
(0.00200048 -2.45302e-06 -0.000431619 0.00200048 -9.23393e-20 0.00200048)
(0.00201195 -2.39558e-06 -0.000434944 0.00201195 -9.24658e-20 0.00201195)
(0.00202321 -2.33906e-06 -0.000438206 0.00202321 -9.32345e-20 0.00202321)
(0.00203425 -2.28374e-06 -0.000441415 0.00203425 -9.55853e-20 0.00203425)
(0.0020451 -2.22993e-06 -0.000444568 0.0020451 -9.21601e-20 0.0020451)
(0.00205575 -2.17734e-06 -0.000447665 0.00205575 -8.74953e-20 0.00205575)
(0.00206619 -2.12541e-06 -0.000450708 0.00206619 -8.83587e-20 0.00206619)
(0.00207645 -2.07471e-06 -0.000453698 0.00207645 -9.19717e-20 0.00207645)
(0.00208651 -2.02497e-06 -0.000456634 0.00208651 -9.24941e-20 0.00208651)
(0.00209638 -1.9759e-06 -0.000459519 0.00209638 -8.4968e-20 0.00209638)
(0.00210606 -1.92809e-06 -0.00046235 0.00210606 -8.57687e-20 0.00210606)
(0.00211556 -1.88097e-06 -0.000465129 0.00211556 -8.86949e-20 0.00211556)
(0.00212487 -1.83453e-06 -0.00046786 0.00212487 -8.41543e-20 0.00212487)
(0.00213401 -1.78908e-06 -0.000470535 0.00213401 -8.41705e-20 0.00213401)
(0.00214297 -1.74433e-06 -0.000473163 0.00214297 -8.45682e-20 0.00214297)
(0.00215175 -1.70028e-06 -0.000475741 0.00215175 -8.64372e-20 0.00215175)
(0.00216035 -1.65693e-06 -0.000478271 0.00216035 -9.25786e-20 0.00216035)
(0.00216877 -1.6143e-06 -0.000480746 0.00216877 -9.03907e-20 0.00216877)
(0.00217702 -1.57211e-06 -0.000483177 0.00217702 -8.84231e-20 0.00217702)
(0.0021851 -1.53062e-06 -0.000485557 0.0021851 -8.82195e-20 0.0021851)
(0.00219301 -1.48986e-06 -0.000487887 0.00219301 -8.52558e-20 0.00219301)
(0.00220075 -1.44926e-06 -0.00049017 0.00220075 -8.57672e-20 0.00220075)
(0.00220831 -1.40939e-06 -0.000492401 0.00220831 -8.32625e-20 0.00220831)
(0.00221571 -1.36997e-06 -0.000494586 0.00221571 -7.60645e-20 0.00221571)
(0.00222294 -1.331e-06 -0.000496722 0.00222294 -7.67172e-20 0.00222294)
(0.00223 -1.29276e-06 -0.00049881 0.00223 -8.2809e-20 0.00223)
(0.00223689 -1.25471e-06 -0.000500851 0.00223689 -8.10311e-20 0.00223689)
(0.00224361 -1.21684e-06 -0.000502838 0.00224361 -7.48715e-20 0.00224361)
(0.00225017 -1.17837e-06 -0.000504782 0.00225017 -6.74653e-20 0.00225017)
(0.00225656 -1.14304e-06 -0.000506674 0.00225656 -6.09676e-20 0.00225656)
(0.00226278 -1.10659e-06 -0.000508517 0.00226278 -6.03488e-20 0.00226278)
(0.00226883 -1.07032e-06 -0.000510316 0.00226883 -6.1065e-20 0.00226883)
(0.00227471 -1.03428e-06 -0.000512062 0.00227471 -5.95587e-20 0.00227471)
(0.00228043 -9.98417e-07 -0.000513758 0.00228043 -5.88883e-20 0.00228043)
(0.00228597 -9.62804e-07 -0.000515404 0.00228597 -5.76721e-20 0.00228597)
(0.00229135 -9.27384e-07 -0.000517002 0.00229135 -6.13977e-20 0.00229135)
(0.00229655 -8.94825e-07 -0.000518549 0.00229655 -5.96509e-20 0.00229655)
(0.00230159 -8.57262e-07 -0.000520048 0.00230159 -4.68285e-20 0.00230159)
(0.00230645 -8.22523e-07 -0.000521494 0.00230645 -4.11876e-20 0.00230645)
(0.00231114 -7.90626e-07 -0.000522888 0.00231114 -3.98148e-20 0.00231114)
(0.00231565 -7.56365e-07 -0.000524232 0.00231565 -3.05005e-20 0.00231565)
(0.00231999 -7.19792e-07 -0.000525524 0.00231999 -2.49649e-20 0.00231999)
(0.00232415 -6.86016e-07 -0.000526766 0.00232415 -2.75736e-20 0.00232415)
(0.00232814 -6.55048e-07 -0.000527954 0.00232814 -2.4209e-20 0.00232814)
(0.00233195 -6.21774e-07 -0.000529088 0.00233195 -1.80811e-20 0.00233195)
(0.00233557 -5.86247e-07 -0.000530171 0.00233557 -1.36835e-20 0.00233557)
(0.00233902 -5.53485e-07 -0.000531195 0.00233902 -1.30219e-20 0.00233902)
(0.00234228 -5.21011e-07 -0.000532167 0.00234228 -1.05104e-20 0.00234228)
(0.00234535 -4.86301e-07 -0.000533085 0.00234535 -4.97934e-21 0.00234535)
(0.00234824 -4.51895e-07 -0.000533951 0.00234824 -5.99461e-21 0.00234824)
(0.00235094 -4.20219e-07 -0.000534755 0.00235094 -1.01282e-20 0.00235094)
(0.00235345 -3.86405e-07 -0.000535503 0.00235345 -8.45815e-21 0.00235345)
(0.00235576 -3.5285e-07 -0.000536194 0.00235576 -6.55535e-21 0.00235576)
(0.00235787 -3.22054e-07 -0.000536827 0.00235787 -1.01503e-21 0.00235787)
(0.00235979 -2.86707e-07 -0.000537398 0.00235979 3.01001e-21 0.00235979)
(0.00236151 -2.51695e-07 -0.000537912 0.00236151 -4.83859e-21 0.00236151)
(0.00236302 -2.19396e-07 -0.000538361 0.00236302 -1.38254e-20 0.00236302)
(0.00236433 -1.87425e-07 -0.000538753 0.00236433 -1.27573e-20 0.00236433)
(0.00236542 -1.53407e-07 -0.00053908 0.00236542 -1.17097e-20 0.00236542)
(0.00236631 -1.19734e-07 -0.000539344 0.00236631 -7.15267e-21 0.00236631)
(0.00236697 -8.64104e-08 -0.000539543 0.00236697 -6.12426e-21 0.00236697)
(0.00236743 -5.11241e-08 -0.000539678 0.00236743 -7.7662e-21 0.00236743)
(0.00236765 -1.62059e-08 -0.000539748 0.00236765 -4.15195e-21 0.00236765)
(0.000420877 -2.46192e-05 -4.60387e-06 0.000420877 1.23383e-18 0.000420877)
(0.000293527 -2.11527e-05 -1.2264e-05 0.000293527 -8.53909e-19 0.000293527)
(0.000272093 -2.30518e-05 -2.30518e-05 0.000272093 -7.5011e-19 0.000272093)
(0.000299988 -2.57731e-05 -3.74592e-05 0.000299988 -5.54312e-19 0.000299988)
(0.000351396 -2.80459e-05 -5.45383e-05 0.000351396 -3.31669e-19 0.000351396)
(0.000413151 -2.95944e-05 -7.34393e-05 0.000413151 -1.13452e-19 0.000413151)
(0.000478184 -3.04098e-05 -9.33292e-05 0.000478184 6.57068e-20 0.000478184)
(0.000542765 -3.06073e-05 -0.000113505 0.000542765 1.87737e-19 0.000542765)
(0.000605057 -3.03472e-05 -0.000133486 0.000605057 2.62643e-19 0.000605057)
(0.000664279 -2.97783e-05 -0.000152989 0.000664279 3.0772e-19 0.000664279)
(0.000720213 -2.90184e-05 -0.000171872 0.000720213 3.33886e-19 0.000720213)
(0.00077294 -2.81518e-05 -0.000190077 0.00077294 3.45162e-19 0.00077294)
(0.00082266 -2.72349e-05 -0.000207596 0.00082266 3.47167e-19 0.00082266)
(0.00086962 -2.6305e-05 -0.000224446 0.00086962 3.44217e-19 0.00086962)
(0.00091408 -2.53848e-05 -0.000240658 0.00091408 3.349e-19 0.00091408)
(0.000956273 -2.44882e-05 -0.000256269 0.000956273 3.27301e-19 0.000956273)
(0.00099642 -2.36222e-05 -0.000271317 0.00099642 3.22559e-19 0.00099642)
(0.00103471 -2.27914e-05 -0.000285836 0.00103471 3.17952e-19 0.00103471)
(0.00107133 -2.19977e-05 -0.00029986 0.00107133 3.08318e-19 0.00107133)
(0.00110641 -2.124e-05 -0.000313415 0.00110641 2.97103e-19 0.00110641)
(0.0011401 -2.05183e-05 -0.000326545 0.0011401 2.91157e-19 0.0011401)
(0.0011725 -1.98312e-05 -0.000339264 0.0011725 2.82086e-19 0.0011725)
(0.00120371 -1.91773e-05 -0.000351602 0.00120371 2.70597e-19 0.00120371)
(0.00123384 -1.85534e-05 -0.000363584 0.00123384 2.6769e-19 0.00123384)
(0.00126295 -1.79594e-05 -0.000375225 0.00126295 2.59736e-19 0.00126295)
(0.00129111 -1.73957e-05 -0.000386547 0.00129111 2.46777e-19 0.00129111)
(0.0013184 -1.68599e-05 -0.000397565 0.0013184 2.43055e-19 0.0013184)
(0.00134487 -1.63443e-05 -0.000408294 0.00134487 2.38192e-19 0.00134487)
(0.00137057 -1.58466e-05 -0.000418762 0.00137057 2.28811e-19 0.00137057)
(0.00139554 -1.53795e-05 -0.000428963 0.00139554 2.2026e-19 0.00139554)
(0.00141983 -1.49297e-05 -0.000438921 0.00141983 2.20749e-19 0.00141983)
(0.00144347 -1.44937e-05 -0.000448647 0.00144347 2.20354e-19 0.00144347)
(0.00146651 -1.40836e-05 -0.000458149 0.00146651 2.03384e-19 0.00146651)
(0.00148897 -1.36903e-05 -0.000467439 0.00148897 1.91554e-19 0.00148897)
(0.00151089 -1.33096e-05 -0.000476522 0.00151089 1.96171e-19 0.00151089)
(0.00153228 -1.29425e-05 -0.000485413 0.00153228 1.87699e-19 0.00153228)
(0.00155318 -1.259e-05 -0.000494117 0.00155318 1.77146e-19 0.00155318)
(0.0015736 -1.22529e-05 -0.000502638 0.0015736 1.82159e-19 0.0015736)
(0.00159357 -1.19264e-05 -0.000510989 0.00159357 1.84858e-19 0.00159357)
(0.00161311 -1.16111e-05 -0.000519169 0.00161311 1.76235e-19 0.00161311)
(0.00163223 -1.1313e-05 -0.000527191 0.00163223 1.64012e-19 0.00163223)
(0.00165095 -1.10219e-05 -0.000535055 0.00165095 1.56254e-19 0.00165095)
(0.00166928 -1.07327e-05 -0.000542772 0.00166928 1.47167e-19 0.00166928)
(0.00168725 -1.04619e-05 -0.000550338 0.00168725 1.45394e-19 0.00168725)
(0.00170486 -1.02046e-05 -0.000557766 0.00170486 1.47678e-19 0.00170486)
(0.00172213 -9.94479e-06 -0.000565062 0.00172213 1.48536e-19 0.00172213)
(0.00173906 -9.69351e-06 -0.000572223 0.00173906 1.42792e-19 0.00173906)
(0.00175567 -9.46186e-06 -0.00057925 0.00175567 1.42293e-19 0.00175567)
(0.00177198 -9.22846e-06 -0.000586161 0.00177198 1.50517e-19 0.00177198)
(0.00178798 -8.99878e-06 -0.000592944 0.00178798 1.51663e-19 0.00178798)
(0.00180369 -8.78395e-06 -0.00059961 0.00180369 1.51372e-19 0.00180369)
(0.00181911 -8.57322e-06 -0.000606164 0.00181911 1.48717e-19 0.00181911)
(0.00183425 -8.36677e-06 -0.0006126 0.00183425 1.53027e-19 0.00183425)
(0.00184912 -8.16468e-06 -0.000618929 0.00184912 1.50199e-19 0.00184912)
(0.00186373 -7.97251e-06 -0.000625149 0.00186373 1.5049e-19 0.00186373)
(0.00187809 -7.78494e-06 -0.000631265 0.00187809 1.48039e-19 0.00187809)
(0.00189219 -7.59666e-06 -0.000637279 0.00189219 1.35686e-19 0.00189219)
(0.00190605 -7.41853e-06 -0.00064319 0.00190605 1.37209e-19 0.00190605)
(0.00191966 -7.24529e-06 -0.000649004 0.00191966 1.40207e-19 0.00191966)
(0.00193304 -7.07156e-06 -0.000654716 0.00193304 1.47309e-19 0.00193304)
(0.00194619 -6.90282e-06 -0.000660338 0.00194619 1.49793e-19 0.00194619)
(0.00195911 -6.73911e-06 -0.000665862 0.00195911 1.41535e-19 0.00195911)
(0.00197181 -6.58587e-06 -0.000671293 0.00197181 1.35533e-19 0.00197181)
(0.00198429 -6.42706e-06 -0.000676635 0.00198429 1.38642e-19 0.00198429)
(0.00199656 -6.27336e-06 -0.00068188 0.00199656 1.40215e-19 0.00199656)
(0.00200861 -6.13029e-06 -0.000687048 0.00200861 1.30451e-19 0.00200861)
(0.00202046 -5.98175e-06 -0.000692122 0.00202046 1.31818e-19 0.00202046)
(0.0020321 -5.83848e-06 -0.000697107 0.0020321 1.38708e-19 0.0020321)
(0.00204353 -5.70054e-06 -0.000702008 0.00204353 1.36742e-19 0.00204353)
(0.00205477 -5.5626e-06 -0.000706827 0.00205477 1.24014e-19 0.00205477)
(0.0020658 -5.43e-06 -0.000711558 0.0020658 1.25644e-19 0.0020658)
(0.00207664 -5.29749e-06 -0.00071621 0.00207664 1.39112e-19 0.00207664)
(0.00208728 -5.16506e-06 -0.000720781 0.00208728 1.33992e-19 0.00208728)
(0.00209773 -5.04332e-06 -0.000725267 0.00209773 1.31406e-19 0.00209773)
(0.00210799 -4.91649e-06 -0.000729678 0.00210799 1.35639e-19 0.00210799)
(0.00211806 -4.78978e-06 -0.000734003 0.00211806 1.35527e-19 0.00211806)
(0.00212794 -4.67378e-06 -0.000738247 0.00212794 1.34485e-19 0.00212794)
(0.00213763 -4.55799e-06 -0.000742411 0.00213763 1.37112e-19 0.00213763)
(0.00214714 -4.43722e-06 -0.000746501 0.00214714 1.31563e-19 0.00214714)
(0.00215646 -4.32187e-06 -0.000750507 0.00215646 1.33311e-19 0.00215646)
(0.00216559 -4.21202e-06 -0.000754436 0.00216559 1.35942e-19 0.00216559)
(0.00217455 -4.09726e-06 -0.000758287 0.00217455 1.30377e-19 0.00217455)
(0.00218331 -3.98796e-06 -0.000762059 0.00218331 1.34356e-19 0.00218331)
(0.0021919 -3.879e-06 -0.000765758 0.0021919 1.28052e-19 0.0021919)
(0.0022003 -3.77035e-06 -0.000769369 0.0022003 1.22991e-19 0.0022003)
(0.00220853 -3.66718e-06 -0.000772913 0.00220853 1.34223e-19 0.00220853)
(0.00221656 -3.56436e-06 -0.000776374 0.00221656 1.257e-19 0.00221656)
(0.00222442 -3.4619e-06 -0.000779758 0.00222442 1.12189e-19 0.00222442)
(0.00223209 -3.35478e-06 -0.000783065 0.00223209 1.14261e-19 0.00223209)
(0.00223959 -3.25309e-06 -0.000786285 0.00223959 1.18923e-19 0.00223959)
(0.00224689 -3.1569e-06 -0.000789435 0.00224689 1.12879e-19 0.00224689)
(0.00225402 -3.05607e-06 -0.000792516 0.00225402 1.07784e-19 0.00225402)
(0.00226097 -2.96069e-06 -0.0007955 0.00226097 1.09428e-19 0.00226097)
(0.00226773 -2.86577e-06 -0.000798418 0.00226773 1.08383e-19 0.00226773)
(0.0022743 -2.76631e-06 -0.000801246 0.0022743 9.92829e-20 0.0022743)
(0.00228069 -2.66735e-06 -0.000804007 0.00228069 9.75769e-20 0.00228069)
(0.00228689 -2.57382e-06 -0.000806675 0.00228689 9.31916e-20 0.00228689)
(0.00229291 -2.48081e-06 -0.000809277 0.00229291 7.29969e-20 0.00229291)
(0.00229874 -2.38827e-06 -0.000811783 0.00229874 6.22977e-20 0.00229874)
(0.00230438 -2.29629e-06 -0.000814213 0.00230438 6.23206e-20 0.00230438)
(0.00230983 -2.19996e-06 -0.000816573 0.00230983 5.8939e-20 0.00230983)
(0.00231509 -2.10904e-06 -0.000818837 0.00231509 4.84944e-20 0.00231509)
(0.00232015 -2.0187e-06 -0.000821021 0.00232015 5.32506e-20 0.00232015)
(0.00232502 -1.92891e-06 -0.000823117 0.00232502 4.85363e-20 0.00232502)
(0.00232969 -1.83972e-06 -0.00082514 0.00232969 3.05311e-20 0.00232969)
(0.00233417 -1.74636e-06 -0.000827072 0.00233417 2.38893e-20 0.00233417)
(0.00233844 -1.65837e-06 -0.000828913 0.00233844 2.61728e-20 0.00233844)
(0.00234252 -1.56631e-06 -0.00083067 0.00234252 3.09951e-20 0.00234252)
(0.00234639 -1.47488e-06 -0.000832344 0.00234639 2.46942e-20 0.00234639)
(0.00235005 -1.38884e-06 -0.000833923 0.00235005 1.60846e-20 0.00235005)
(0.00235351 -1.30343e-06 -0.000835417 0.00235351 1.98631e-20 0.00235351)
(0.00235676 -1.21408e-06 -0.000836816 0.00235676 2.2604e-20 0.00235676)
(0.00235979 -1.1208e-06 -0.000838134 0.00235979 6.32263e-21 0.00235979)
(0.00236262 -1.0329e-06 -0.000839348 0.00236262 -5.91401e-21 0.00236262)
(0.00236522 -9.45734e-07 -0.000840472 0.00236522 -1.18353e-21 0.00236522)
(0.0023676 -8.54788e-07 -0.000841498 0.0023676 9.20259e-21 0.0023676)
(0.00236976 -7.64623e-07 -0.000842432 0.00236976 1.69997e-20 0.00236976)
(0.00237169 -6.75302e-07 -0.000843266 0.00237169 1.78077e-21 0.00237169)
(0.0023734 -5.86786e-07 -0.000844006 0.0023734 -1.36739e-20 0.0023734)
(0.00237487 -4.99136e-07 -0.000844643 0.00237487 -7.50968e-21 0.00237487)
(0.00237611 -4.07896e-07 -0.000845177 0.00237611 -8.19693e-21 0.00237611)
(0.0023771 -3.17567e-07 -0.000845606 0.0023771 -6.26349e-21 0.0023771)
(0.00237785 -2.28162e-07 -0.000845929 0.00237785 3.54965e-21 0.00237785)
(0.00237836 -1.39693e-07 -0.000846146 0.00237836 -1.99228e-20 0.00237836)
(0.00237861 -4.78472e-08 -0.000846255 0.00237861 -1.50769e-20 0.00237861)
(0.000529295 -3.71031e-05 -4.86882e-06 0.000529295 1.06898e-18 0.000529295)
(0.000339113 -3.1124e-05 -1.24476e-05 0.000339113 -3.23503e-19 0.000339113)
(0.000299988 -3.74592e-05 -2.57731e-05 0.000299988 -5.55318e-19 0.000299988)
(0.000330608 -4.89635e-05 -4.89635e-05 0.000330608 -8.08233e-19 0.000330608)
(0.000393299 -5.97049e-05 -7.96546e-05 0.000393299 -8.38822e-19 0.000393299)
(0.000468925 -6.71431e-05 -0.000113659 0.000468925 -6.71045e-19 0.000468925)
(0.000547839 -7.13769e-05 -0.000148354 0.000547839 -4.2182e-19 0.000547839)
(0.000625395 -7.31994e-05 -0.000182414 0.000625395 -1.85241e-19 0.000625395)
(0.000699533 -7.33719e-05 -0.000215213 0.000699533 4.93108e-21 0.000699533)
(0.00076952 -7.24746e-05 -0.000246499 0.00076952 1.5039e-19 0.00076952)
(0.00083524 -7.09163e-05 -0.00027622 0.00083524 2.56173e-19 0.00083524)
(0.000896907 -6.89693e-05 -0.000304431 0.000896907 3.31968e-19 0.000896907)
(0.000954827 -6.68137e-05 -0.000331207 0.000954827 3.85239e-19 0.000954827)
(0.00100935 -6.45631e-05 -0.000356663 0.00100935 4.20253e-19 0.00100935)
(0.00106082 -6.22991e-05 -0.000380891 0.00106082 4.3284e-19 0.00106082)
(0.00110953 -6.00703e-05 -0.000404008 0.00110953 4.45269e-19 0.00110953)
(0.00115578 -5.78951e-05 -0.000426095 0.00115578 4.60223e-19 0.00115578)
(0.0011998 -5.57895e-05 -0.000447232 0.0011998 4.55314e-19 0.0011998)
(0.0012418 -5.37575e-05 -0.000467499 0.0012418 4.46108e-19 0.0012418)
(0.00128197 -5.18258e-05 -0.000486961 0.00128197 4.49788e-19 0.00128197)
(0.00132047 -4.99847e-05 -0.000505676 0.00132047 4.52568e-19 0.00132047)