/*--------------------------------*- C++ -*----------------------------------*\
| =========                 |                                                 |
| \\      /  F ield         | OpenFOAM: The Open Source CFD Toolbox           |
|  \\    /   O peration     | Version:  2306                                  |
|   \\  /    A nd           | Website:  www.openfoam.com                      |
|    \\/     M anipulation  |                                                 |
\*---------------------------------------------------------------------------*/
FoamFile
{
    version     2.0;
    format      ascii;
    arch        "LSB;label=32;scalar=64";
    class       volSymmTensorField;
    location    "0";
    object      D;
}
// * * * * * * * * * * * * * * * * * * * * * * * * * * * * * * * * * * * * * //

dimensions      [0 0 -1 0 0 0 0];

internalField   nonuniform List<symmTensor> 
15625
(
(0 0.190558 0.190558 -1.91597e-13 -1.2683e-13 -1.91545e-13)
(0 0.158847 0.499833 1.67089e-14 -5.45808e-14 -1.09681e-13)
(0 0.14719 0.7871 7.67736e-14 -3.94288e-14 -5.67868e-14)
(0 0.138806 1.05778 4.21581e-14 -3.0451e-14 -3.17952e-14)
(0 0.130999 1.31292 1.88846e-14 -2.24468e-14 -1.8357e-14)
(0 0.122982 1.55215 1.0605e-14 -1.64213e-14 -1.05077e-14)
(1.66595e-17 0.114775 1.77513 6.44332e-15 -1.2248e-14 -6.2063e-15)
(0 0.106661 1.98213 4.02988e-15 -9.30858e-15 -3.91263e-15)
(0 0.0989242 2.17397 2.67567e-15 -7.16318e-15 -2.62476e-15)
(0 0.0917376 2.35178 1.9101e-15 -5.55465e-15 -1.87634e-15)
(0 0.0851738 2.51688 1.44765e-15 -4.30786e-15 -1.40329e-15)
(0 0.0792445 2.67054 1.13594e-15 -3.30498e-15 -1.10308e-15)
(0 0.0739184 2.81399 9.09433e-16 -2.49487e-15 -8.77077e-16)
(0 0.06914 2.94832 7.35585e-16 -1.83778e-15 -7.03711e-16)
(3.18618e-17 0.0648547 3.0745 6.04862e-16 -1.30927e-15 -5.46849e-16)
(-6.33684e-17 0.0609966 3.1934 5.00042e-16 -8.65416e-16 -4.69448e-16)
(3.15076e-17 0.0575095 3.30573 4.08966e-16 -4.96649e-16 -3.62437e-16)
(0 0.0543548 3.41214 3.55315e-16 -2.13911e-16 -2.96597e-16)
(6.23146e-17 0.0514863 3.51318 3.17652e-16 6.07817e-17 -2.76194e-16)
(3.09836e-17 0.0488671 3.60935 2.59733e-16 2.9715e-16 -2.09309e-16)
(0 0.0464692 3.70106 2.07247e-16 4.70357e-16 -1.93204e-16)
(0 0.0442609 3.78869 1.73767e-16 6.21056e-16 -1.63961e-16)
(0 0.0422273 3.87255 1.56102e-16 7.39559e-16 -1.31267e-16)
(-6.0597e-17 0.040346 3.95294 1.54826e-16 8.50579e-16 -1.15448e-16)
(-3.01296e-17 0.0385987 4.03012 1.49974e-16 9.58676e-16 -1.17631e-16)
(0 0.0369755 4.10431 1.32063e-16 1.07415e-15 -1.24554e-16)
(2.97947e-17 0.0354589 4.17572 1.1694e-16 1.18318e-15 -9.67821e-17)
(0 0.0340434 4.24453 1.07901e-16 1.27031e-15 -8.19944e-17)
(0 0.0327198 4.31091 9.87399e-17 1.35053e-15 -8.79697e-17)
(0 0.031475 4.37502 8.49438e-17 1.41639e-15 -4.43113e-17)
(-5.82717e-17 0.0302965 4.43698 6.78504e-17 1.46233e-15 -4.14125e-17)
(0 0.0291946 4.49691 6.51618e-17 1.50109e-15 -4.25648e-17)
(0 0.0281532 4.55495 6.44668e-17 1.55286e-15 -4.80949e-17)
(0 0.0271636 4.61118 6.89177e-17 1.58565e-15 -1.44927e-17)
(-5.69832e-17 0.0262327 4.6657 8.9716e-17 1.64498e-15 -3.85644e-17)
(0 0.0253447 4.71861 7.4156e-17 1.73543e-15 -4.73492e-17)
(0 0.0245027 4.76997 4.00141e-17 1.77527e-15 -4.02617e-17)
(0 0.023706 4.81988 3.92293e-17 1.80487e-15 -3.14514e-17)
(0 0.0229429 4.86839 3.59523e-17 1.83086e-15 -1.65316e-17)
(0 0.0222166 4.91557 2.51098e-17 1.83415e-15 -2.36347e-17)
(0 0.021523 4.96148 3.9079e-17 1.83231e-15 -1.87444e-17)
(0 0.0208578 5.00618 5.53e-17 1.8532e-15 -4.66744e-17)
(0 0.020228 5.04971 3.47428e-17 1.8863e-15 -1.41381e-17)
(0 0.0196223 5.09213 1.1746e-17 1.8779e-15 2.11371e-17)
(0 0.0190368 5.13348 2.13957e-17 1.87997e-15 1.07531e-17)
(5.3585e-17 0.0184783 5.17379 1.00358e-17 1.93347e-15 2.80151e-17)
(0 0.0179463 5.21313 -2.97514e-17 1.94978e-15 3.93878e-17)
(5.29892e-17 0.0174301 5.25151 -5.18986e-17 1.90401e-15 7.16223e-17)
(5.26938e-17 0.0169329 5.28897 -4.76826e-17 1.85143e-15 5.58411e-17)
(0 0.0164578 5.32555 -2.02538e-17 1.82183e-15 3.45941e-17)
(-1.04216e-16 0.0159978 5.36128 -1.13589e-17 1.82805e-15 8.14101e-18)
(0 0.0155559 5.39618 -2.84258e-17 1.80794e-15 3.46393e-17)
(5.15287e-17 0.0151286 5.43028 -3.72985e-17 1.79293e-15 1.04072e-17)
(1.02483e-16 0.0147156 5.46362 -4.27697e-17 1.77156e-15 3.48899e-17)
(0 0.0143167 5.4962 -2.16907e-17 1.73551e-15 1.10736e-18)
(0 0.0139318 5.52806 1.547e-17 1.75921e-15 -1.23267e-17)
(0 0.0135574 5.55922 2.2907e-17 1.79611e-15 -2.25796e-17)
(0 0.0131965 5.58969 1.57235e-17 1.81706e-15 -1.09608e-17)
(0 0.0128457 5.6195 3.33494e-18 1.84981e-15 3.1227e-19)
(0 0.0125049 5.64866 -1.73716e-17 1.8681e-15 4.46794e-18)
(0 0.0121772 5.6772 -1.7586e-17 1.8297e-15 3.27703e-18)
(0 0.011856 5.70512 1.97025e-17 1.82645e-15 -4.20507e-17)
(-9.74547e-17 0.0115444 5.73244 4.26929e-17 1.88668e-15 6.78103e-18)
(0 0.0112422 5.75918 1.53403e-17 1.92779e-15 8.92374e-18)
(0 0.0109493 5.78536 -1.31636e-17 1.92354e-15 1.1031e-17)
(0 0.0106656 5.81097 -2.13337e-17 1.88779e-15 2.23271e-17)
(4.76499e-17 0.0103847 5.83605 -1.45887e-17 1.84025e-15 6.96285e-17)
(0 0.0101128 5.86058 4.79359e-18 1.8106e-15 4.10173e-18)
(0 0.00984987 5.88461 1.79749e-17 1.80068e-15 -5.41481e-18)
(0 0.00958949 5.90811 7.1585e-18 1.81521e-15 -6.74617e-18)
(0 0.00933781 5.93113 -2.18089e-17 1.81932e-15 7.94014e-17)
(0 0.00909168 5.95364 -1.60027e-17 1.75461e-15 8.55625e-17)
(0 0.00885101 5.97567 -1.25657e-17 1.74621e-15 -4.85973e-18)
(9.16428e-17 0.00861874 5.99723 -5.00163e-17 1.73106e-15 3.99082e-17)
(0 0.0083888 6.01833 -3.93381e-17 1.64352e-15 2.13898e-17)
(-4.5312e-17 0.00816114 6.03896 7.73493e-19 1.63658e-15 -3.97552e-17)
(-9.01188e-17 0.00794165 6.05915 1.85543e-17 1.6546e-15 -4.72208e-18)
(0 0.00772437 6.07888 2.11483e-17 1.70219e-15 -3.44175e-17)
(4.45584e-17 0.00751217 6.09818 -2.32323e-17 1.75489e-15 -1.62597e-17)
(4.43101e-17 0.0073079 6.11704 -5.59831e-17 1.69527e-15 4.0307e-17)
(0 0.0071028 6.13548 -3.99217e-17 1.64241e-15 3.38323e-17)
(0 0.0069026 6.15348 -1.79162e-17 1.60103e-15 6.05559e-17)
(0 0.00670729 6.17108 1.92882e-18 1.56883e-15 1.18053e-17)
(0 0.0065111 6.18826 -3.4908e-18 1.55988e-15 3.96887e-17)
(8.61775e-17 0.00632251 6.20502 -2.05492e-17 1.50319e-15 6.42988e-17)
(1.71394e-16 0.00613865 6.22138 -9.15854e-18 1.46551e-15 4.63749e-17)
(0 0.00595385 6.23734 2.13624e-17 1.45674e-15 -2.51224e-17)
(0 0.00577092 6.25289 1.31886e-17 1.46956e-15 -2.82434e-17)
(0 0.00559259 6.26805 -3.21434e-17 1.42971e-15 3.41829e-17)
(0 0.00541609 6.28282 -5.69177e-17 1.32637e-15 6.68316e-17)
(0 0.00524408 6.29718 -4.86101e-17 1.22134e-15 7.05221e-17)
(0 0.00507385 6.31114 -1.50782e-17 1.1282e-15 1.83538e-17)
(0 0.00490264 6.32476 -3.29813e-18 1.09799e-15 -9.67943e-18)
(0 0.00473854 6.33794 -1.59419e-17 1.06879e-15 3.43713e-17)
(8.14925e-17 0.00457348 6.35078 2.17704e-17 1.03932e-15 1.10488e-17)
(-1.62076e-16 0.00440743 6.36319 7.65947e-17 1.07319e-15 1.04306e-17)
(0 0.00424837 6.37525 5.45837e-17 1.12086e-15 -4.44687e-18)
(8.01373e-17 0.00408835 6.38689 -2.81962e-18 1.1205e-15 -1.8195e-17)
(0 0.00392994 6.39818 -1.6224e-17 1.03169e-15 6.52796e-17)
(0 0.00377321 6.40909 -9.86139e-18 9.35041e-16 8.53401e-17)
(0 0.00361807 6.41956 7.22743e-18 8.4528e-16 5.86239e-17)
(-7.83653e-17 0.00346457 6.42969 2.78135e-17 7.85908e-16 5.53736e-17)
(0 0.0033101 6.43943 -3.85855e-18 7.42188e-16 8.13543e-17)
(0 0.00315979 6.44878 -3.13694e-17 6.32774e-16 1.85345e-17)
(0 0.00300853 6.4577 -1.30106e-17 5.75903e-16 -2.7184e-18)
(0 0.00285635 6.46627 -2.04795e-17 5.61299e-16 6.67242e-17)
(-7.62054e-17 0.00270826 6.47445 -2.39536e-17 4.73932e-16 6.3701e-17)
(0 0.00256175 6.48225 4.04527e-18 4.23385e-16 5.6731e-17)
(7.53581e-17 0.00241431 6.4896 -1.97972e-18 4.01476e-16 2.85916e-17)
(0 0.00226599 6.49661 -2.1742e-17 3.26687e-16 5.97341e-17)
(7.45203e-17 0.00211923 6.50318 -1.12231e-17 2.82557e-16 5.92877e-17)
(7.4105e-17 0.00197406 6.50936 2.31875e-17 2.72999e-16 -6.25267e-18)
(0 0.00182561 6.51509 1.63263e-17 3.14711e-16 1.89229e-17)
(-7.32811e-17 0.00168114 6.52047 -3.12633e-17 2.88884e-16 1.19678e-16)
(0 0.00153824 6.52537 -4.62705e-17 2.20897e-16 6.28311e-17)
(7.24664e-17 0.00139213 6.52991 -3.84238e-17 1.689e-16 8.05542e-17)
(0 0.00124525 6.53401 1.6111e-17 1.19814e-16 -7.11913e-17)
(0 0.00109996 6.53765 5.80096e-17 1.99477e-16 -7.96245e-17)
(7.12613e-17 0.000953927 6.54085 1.88334e-17 2.84683e-16 -6.33245e-17)
(0 0.000809465 6.54364 -9.57823e-18 2.77586e-16 4.62273e-18)
(0 0.000664311 6.54598 -1.9436e-17 2.73513e-16 2.65132e-17)
(-7.00762e-17 0.000516139 6.54786 -4.24938e-17 2.1856e-16 1.23804e-16)
(0 0.00036961 6.54929 -5.30298e-17 1.68105e-16 2.5007e-17)
(0 0.000222425 6.55026 -4.85701e-17 7.15949e-17 4.63641e-17)
(0 7.46208e-05 6.55072 -4.23176e-17 2.80108e-17 1.19071e-16)
(0 0.499833 0.158847 -1.09682e-13 -5.46093e-14 1.67572e-14)
(0 0.435204 0.435204 -8.34903e-15 6.85105e-14 -8.4799e-15)
(0 0.405321 0.699087 2.46989e-14 2.82866e-14 -3.01043e-14)
(0 0.378988 0.947626 2.53383e-14 9.93028e-15 -2.63152e-14)
(0 0.353101 1.17893 1.7064e-14 1.41134e-15 -1.91084e-14)
(3.3319e-17 0.3271 1.39187 1.25341e-14 -2.46744e-15 -1.34573e-14)
(0 0.301595 1.58658 9.17115e-15 -4.01401e-15 -9.50253e-15)
(-6.58971e-17 0.277387 1.76428 6.64641e-15 -4.28883e-15 -6.83013e-15)
(6.55298e-17 0.255034 1.92662 4.90058e-15 -3.99925e-15 -5.0283e-15)
(0 0.234782 2.07539 3.71221e-15 -3.5265e-15 -3.80826e-15)
(-6.48012e-17 0.216651 2.21224 2.9081e-15 -3.03044e-15 -2.97159e-15)
(0 0.200513 2.33867 2.32584e-15 -2.54557e-15 -2.38791e-15)
(0 0.186176 2.45595 1.8542e-15 -2.1018e-15 -1.94086e-15)
(0 0.173428 2.56518 1.49207e-15 -1.72302e-15 -1.61033e-15)
(0 0.162067 2.66729 1.22217e-15 -1.41565e-15 -1.34412e-15)
(0 0.151901 2.76307 9.90698e-16 -1.14401e-15 -1.07316e-15)
(0 0.142768 2.8532 7.84244e-16 -9.12414e-16 -8.85818e-16)
(0 0.134532 2.93825 6.68367e-16 -7.55433e-16 -7.45847e-16)
(-1.23934e-16 0.127077 3.01872 6.06035e-16 -5.74088e-16 -6.55786e-16)
(0 0.120292 3.09503 4.8784e-16 -4.02686e-16 -5.50952e-16)
(0 0.114096 3.16756 3.75502e-16 -2.87621e-16 -4.62063e-16)
(0 0.108423 3.23664 3.07061e-16 -1.62427e-16 -4.11915e-16)
(1.21194e-16 0.1032 3.30254 2.5256e-16 -5.88291e-17 -3.48129e-16)
(1.20519e-16 0.0983806 3.36551 2.27408e-16 -1.19366e-18 -2.8773e-16)
(0 0.0939275 3.42578 2.31687e-16 7.12246e-17 -3.00755e-16)
(0 0.0897917 3.48355 2.47828e-16 1.66986e-16 -2.51833e-16)
(0 0.0859409 3.53901 2.43862e-16 2.57621e-16 -2.33107e-16)
(0 0.0823514 3.59232 1.94992e-16 3.36267e-16 -2.21727e-16)
(0 0.0789958 3.64357 1.31884e-16 4.03028e-16 -1.91208e-16)
(0 0.0758516 3.69291 9.61167e-17 4.40374e-16 -1.63998e-16)
(0 0.0729002 3.74052 8.27402e-17 4.53862e-16 -1.37051e-16)
(0 0.0701272 3.78642 9.42507e-17 4.9134e-16 -1.81929e-16)
(0 0.0675111 3.83074 8.74078e-17 5.69437e-16 -2.14196e-16)
(0 0.065042 3.8736 8.9091e-17 6.04476e-16 -1.48342e-16)
(-1.13331e-16 0.0627103 3.91505 1.47973e-16 6.03231e-16 -1.16477e-16)
(0 0.0604989 3.95517 1.38932e-16 6.64441e-16 -1.5088e-16)
(0 0.0584061 3.99403 7.13265e-17 7.26352e-16 -7.85948e-17)
(0 0.0564192 4.03168 4.25781e-17 7.44398e-16 -5.25966e-17)
(0 0.0545255 4.0682 1.43869e-17 7.48948e-16 -8.14345e-17)
(0 0.0527274 4.10363 -1.6556e-17 7.6525e-16 -1.21967e-16)
(0 0.0510161 4.13802 -8.14718e-18 7.68649e-16 -1.15849e-16)
(-1.08982e-16 0.0493797 4.17146 2.26045e-17 7.91006e-16 -8.63215e-17)
(0 0.0478169 4.20393 1.19719e-17 8.40251e-16 -6.44554e-17)
(0 0.0463269 4.23547 -7.42556e-18 8.37493e-16 -4.45656e-18)
(0 0.0448978 4.26618 5.35309e-17 8.37806e-16 1.47852e-17)
(-1.06573e-16 0.0435287 4.29608 8.3927e-17 8.63071e-16 2.99239e-17)
(1.05978e-16 0.0422189 4.32513 -1.04231e-17 8.89776e-16 2.95941e-17)
(0 0.0409605 4.35342 -8.46349e-17 8.79458e-16 9.78854e-17)
(0 0.0397493 4.38104 -7.02053e-17 8.45972e-16 9.78181e-17)
(0 0.038588 4.40788 -2.28815e-17 8.38208e-16 8.76565e-17)
(0 0.0374692 4.43407 -1.68955e-17 8.54043e-16 6.74605e-17)
(2.06115e-16 0.0363921 4.4596 -2.94128e-17 8.56525e-16 4.99445e-17)
(0 0.0353563 4.48451 -1.84116e-17 8.53955e-16 4.62144e-17)
(0 0.0343576 4.50878 -2.38289e-17 8.58992e-16 -2.54027e-17)
(0 0.0333924 4.53247 8.43925e-18 8.61973e-16 -1.95046e-18)
(0 0.0324601 4.5556 6.02215e-17 8.86012e-16 -6.37677e-17)
(0 0.0315602 4.57818 6.41037e-17 9.21266e-16 -2.94789e-17)
(0 0.0306858 4.60019 5.54416e-17 9.56839e-16 1.238e-17)
(1.98205e-16 0.0298429 4.62172 5.00445e-17 9.49452e-16 3.72077e-17)
(1.97101e-16 0.0290312 4.64272 1.90553e-19 9.4155e-16 3.16974e-17)
(0 0.0282405 4.66323 -2.63721e-17 9.37481e-16 -2.13657e-17)
(0 0.0274706 4.68325 4.73511e-17 9.66086e-16 -3.32365e-17)
(1.93823e-16 0.0267275 4.70281 9.30862e-17 1.0061e-15 -1.93064e-17)
(0 0.0260076 4.72196 3.50119e-17 1.00385e-15 1.87027e-17)
(0 0.0253045 4.74061 -4.11261e-17 1.00863e-15 3.93579e-18)
(0 0.0246209 4.75887 -7.35173e-17 1.0305e-15 -4.71053e-18)
(1.89537e-16 0.0239597 4.77671 -8.20724e-17 9.90225e-16 6.80392e-17)
(-1.88481e-16 0.0233176 4.79413 -6.95832e-17 9.37006e-16 5.60226e-17)
(1.8743e-16 0.022688 4.81116 -2.47252e-17 9.43201e-16 2.54725e-17)
(0 0.022077 4.82781 6.53038e-18 9.78672e-16 5.11309e-18)
(1.85346e-16 0.0214813 4.84406 -4.3521e-17 9.81195e-16 8.87497e-17)
(-1.84313e-16 0.0208975 4.85996 -6.29804e-17 8.98638e-16 6.11509e-17)
(0 0.0203317 4.87547 -2.71352e-17 9.0443e-16 2.81043e-17)
(0 0.0197776 4.89063 -7.76274e-17 9.32588e-16 5.37845e-17)
(0 0.0192349 4.90547 -8.03813e-17 8.8235e-16 4.73063e-17)
(-1.80238e-16 0.0187066 4.91991 -5.26477e-18 8.80085e-16 3.43569e-17)
(0 0.0181894 4.93403 5.91854e-17 8.81858e-16 2.14053e-17)
(0 0.0176834 4.94784 1.02543e-16 8.98972e-16 2.08197e-17)
(0 0.0171882 4.96134 5.05363e-18 9.60363e-16 1.28124e-17)
(0 0.0167038 4.97446 -8.62922e-17 9.35307e-16 7.60094e-17)
(-1.7527e-16 0.0162271 4.98731 -6.22924e-17 9.12696e-16 3.1978e-17)
(1.74293e-16 0.015761 4.99984 -6.59569e-17 9.08408e-16 6.13893e-17)
(0 0.0153053 5.01205 -6.66617e-17 8.75831e-16 8.91059e-17)
(0 0.0148542 5.02397 -7.95265e-17 8.79067e-16 6.04495e-17)
(-1.71394e-16 0.0144132 5.03557 -9.78161e-17 8.51489e-16 1.26711e-16)
(-1.70439e-16 0.0139795 5.04689 -5.56421e-17 7.76182e-16 1.14511e-16)
(0 0.013553 5.05792 -1.22388e-17 7.8118e-16 9.81646e-18)
(0 0.0131364 5.06867 -4.68478e-17 8.41465e-16 7.16893e-17)
(0 0.012724 5.07913 -1.39e-16 8.21736e-16 9.87017e-17)
(0 0.0123158 5.08927 -1.86533e-16 7.57781e-16 1.23065e-16)
(1.65741e-16 0.0119035 5.09916 -1.89993e-16 6.81515e-16 9.352e-17)
(0 0.0115252 5.10877 -1.44019e-16 6.14733e-16 1.20608e-16)
(1.63899e-16 0.0111375 5.11809 -7.05373e-17 6.07394e-16 8.79008e-17)
(0 0.0107535 5.12717 -5.08008e-17 6.13524e-16 7.87429e-17)
(0 0.0103737 5.13596 -2.30306e-17 5.9737e-16 3.19432e-17)
(0 0.00999754 5.14447 2.48321e-17 5.89672e-16 4.64367e-17)
(1.60275e-16 0.00962552 5.15269 1.05158e-19 5.7657e-16 -8.78627e-18)
(0 0.00925705 5.16066 -1.0918e-16 6.12865e-16 3.72816e-17)
(0 0.00891867 5.16835 -2.02569e-16 5.94537e-16 9.99558e-17)
(-1.57609e-16 0.00853192 5.17579 -2.05758e-16 4.66062e-16 1.64681e-16)
(0 0.00817478 5.18295 -1.69046e-16 4.09349e-16 1.20194e-16)
(0 0.00784721 5.18982 -1.43226e-16 3.95174e-16 1.27899e-16)
(0 0.00749746 5.19645 -1.61393e-16 3.02336e-16 1.29739e-16)
(3.08248e-16 0.00712609 5.20279 -1.52856e-16 2.47157e-16 3.52518e-17)
(3.0653e-16 0.00678362 5.2089 -8.80607e-17 2.7266e-16 3.34103e-17)
(1.52411e-16 0.00647004 5.21471 -9.73093e-17 2.39117e-16 8.42423e-17)
(1.51561e-16 0.00613474 5.22025 -1.20081e-16 1.78398e-16 1.21212e-16)
(0 0.00577825 5.22554 -8.33567e-17 1.34869e-16 1.16133e-16)
(0 0.00544999 5.23051 -1.01377e-16 1.28223e-16 4.859e-17)
(0 0.00512549 5.23524 -1.06968e-16 1.03397e-16 7.54709e-17)
(1.4821e-16 0.00477985 5.23969 -4.3959e-17 4.89419e-17 5.06191e-17)
(0 0.00443804 5.2439 2.97865e-18 5.88727e-17 3.69737e-18)
(0 0.0041238 5.24779 -4.14997e-18 9.93922e-17 -5.69083e-17)
(1.45745e-16 0.00378928 5.25141 -4.77477e-17 8.29448e-17 1.81071e-17)
(0 0.00345796 5.25474 -7.278e-17 6.42429e-17 7.57545e-17)
(0 0.00315426 5.2578 -7.81024e-17 9.94141e-18 1.1058e-16)
(-1.43321e-16 0.00280655 5.26054 6.58533e-18 -2.94648e-17 1.37412e-17)
(-1.42523e-16 0.00246262 5.26302 1.15255e-16 4.73415e-17 -1.01404e-16)
(0 0.00214569 5.26517 6.16151e-17 1.35212e-16 -3.60229e-17)
(-1.40938e-16 0.00183234 5.26706 -1.8171e-17 1.2472e-16 8.1877e-17)
(0 0.0014993 5.26863 -4.01382e-17 1.14443e-16 1.89576e-17)
(0 0.00116991 5.26989 -4.47538e-17 6.98883e-17 9.21448e-17)
(0 0.000844151 5.27085 -9.29104e-17 5.98285e-17 3.94848e-17)
(-1.37822e-16 0.000499373 5.2715 -1.02137e-16 7.58591e-17 4.22685e-17)
(0 0.000158286 5.27184 -5.48311e-17 4.0553e-17 1.89336e-16)
(0 0.7871 0.14719 -5.68183e-14 -3.94468e-14 7.68221e-14)
(0 0.699087 0.405321 -2.99921e-14 2.82213e-14 2.46177e-14)
(0 0.65678 0.65678 1.80613e-15 2.13718e-14 1.74099e-15)
(6.70115e-17 0.613351 0.891456 1.02904e-14 1.31916e-14 -8.7557e-15)
(0 0.567884 1.10431 1.15245e-14 6.71577e-15 -1.14369e-14)
(0 0.52164 1.29446 1.08249e-14 1.99974e-15 -1.08771e-14)
(0 0.476932 1.46373 9.19912e-15 -1.03051e-15 -9.25232e-15)
(0 0.435489 1.61498 7.45913e-15 -2.67117e-15 -7.53188e-15)
(-6.51645e-17 0.398098 1.75109 5.95054e-15 -3.44539e-15 -6.03803e-15)
(0 0.364863 1.87452 4.7417e-15 -3.77038e-15 -4.82974e-15)
(0 0.33553 1.9873 3.85191e-15 -3.86061e-15 -3.90324e-15)
(-1.28162e-16 0.309694 2.09101 3.18318e-15 -3.79708e-15 -3.1774e-15)
(1.27447e-16 0.286908 2.18693 2.61725e-15 -3.65724e-15 -2.6369e-15)
(0 0.266756 2.27608 2.14577e-15 -3.49066e-15 -2.22304e-15)
(0 0.24886 2.35929 1.78336e-15 -3.2832e-15 -1.9051e-15)
(0 0.232898 2.43728 1.49108e-15 -3.11284e-15 -1.56949e-15)
(1.24629e-16 0.218586 2.51061 1.20764e-15 -2.98477e-15 -1.36582e-15)
(1.23934e-16 0.205699 2.57975 1.03801e-15 -2.86961e-15 -1.18182e-15)
(0 0.194045 2.64512 9.64491e-16 -2.71973e-15 -9.86794e-16)
(0 0.183452 2.70701 8.02885e-16 -2.56612e-15 -8.18276e-16)
(0 0.17379 2.76585 6.54572e-16 -2.46611e-15 -7.13367e-16)
(0 0.164944 2.8218 5.79666e-16 -2.34622e-15 -6.30178e-16)
(0 0.156818 2.87514 4.79317e-16 -2.21274e-15 -5.68568e-16)
(0 0.149316 2.92609 4.33676e-16 -2.15434e-15 -5.16105e-16)
(0 0.142382 2.97478 4.50482e-16 -2.05919e-15 -4.28188e-16)
(0 0.135972 3.02141 4.30002e-16 -1.92891e-15 -3.47629e-16)
(-2.35707e-16 0.130027 3.06609 3.99116e-16 -1.87449e-15 -2.81456e-16)
(2.34393e-16 0.124454 3.10896 3.48878e-16 -1.81371e-15 -2.82117e-16)
(0 0.119209 3.15022 2.70124e-16 -1.72128e-15 -2.86446e-16)
(0 0.114364 3.18984 2.07736e-16 -1.63789e-15 -2.70137e-16)
(0 0.109799 3.22799 1.86013e-16 -1.62347e-15 -2.48188e-16)
(0 0.10547 3.26477 2.35036e-16 -1.6035e-15 -2.59562e-16)
(2.27933e-16 0.10145 3.30022 2.33225e-16 -1.46505e-15 -3.00054e-16)
(0 0.0976588 3.33446 1.63212e-16 -1.36644e-15 -2.6443e-16)
(0 0.0940562 3.36749 2.07379e-16 -1.38631e-15 -1.9703e-16)
(0 0.0906391 3.39944 2.46152e-16 -1.31449e-15 -1.68834e-16)
(0 0.0874047 3.43034 1.57141e-16 -1.22981e-15 -1.08494e-16)
(-2.21651e-16 0.0843502 3.46022 9.04746e-17 -1.254e-15 -6.32308e-17)
(0 0.0814365 3.48917 8.42972e-17 -1.26226e-15 -6.55631e-17)
(0 0.0786614 3.51719 7.10301e-17 -1.19393e-15 -1.45185e-16)
(0 0.076059 3.54437 7.58661e-17 -1.10268e-15 -1.69644e-16)
(0 0.073555 3.57071 1.20314e-16 -1.04276e-15 -1.15195e-16)
(2.15541e-16 0.0711122 3.59626 8.84942e-17 -9.75088e-16 -9.37872e-17)
(0 0.068836 3.62104 3.18358e-17 -9.56641e-16 -1.58576e-17)
(0 0.066689 3.64511 7.14725e-17 -9.65102e-16 1.4342e-17)
(0 0.0645638 3.66851 8.39919e-17 -9.6433e-16 5.21273e-18)
(0 0.0625298 3.69123 -1.8977e-18 -9.21108e-16 1.7024e-17)
(0 0.0606552 3.71328 -8.63841e-17 -9.12168e-16 6.3089e-17)
(0 0.0587999 3.73477 -8.13787e-17 -9.59035e-16 1.07445e-16)
(0 0.0569972 3.75564 -2.20505e-17 -9.60618e-16 6.98429e-17)
(0 0.0553154 3.77595 -5.07343e-18 -9.53237e-16 7.41332e-17)
(0 0.0536844 3.79572 -2.35993e-17 -9.31249e-16 3.93426e-17)
(0 0.0521037 3.81494 -2.58219e-17 -9.52968e-16 2.0084e-17)
(0 0.0505724 3.83367 -2.34837e-17 -9.3034e-16 -6.59112e-17)
(0 0.0491232 3.8519 2.11538e-17 -9.27256e-16 -3.41547e-17)
(0 0.0477219 3.86967 9.01032e-17 -9.0748e-16 -3.05532e-17)
(3.98633e-16 0.0463346 3.88698 9.96673e-17 -8.27592e-16 5.1585e-18)
(0 0.0450268 3.90384 5.65466e-17 -8.32791e-16 -5.66287e-18)
(-1.97101e-16 0.0437649 3.92028 1.22823e-17 -8.46913e-16 -2.78628e-17)
(0 0.0425156 3.93628 -1.42737e-17 -8.85649e-16 1.58138e-17)
(0 0.0413112 3.95191 1.74663e-18 -8.96464e-16 1.14464e-17)
(0 0.0401508 3.96712 8.20638e-17 -8.43251e-16 -3.46277e-17)
(0 0.0390659 3.98195 1.03694e-16 -8.03948e-16 -1.13821e-16)
(0 0.0379604 3.99643 3.96506e-17 -8.18866e-16 -5.12052e-17)
(0 0.0368971 4.01051 -3.72498e-18 -8.2468e-16 4.50904e-18)
(1.89537e-16 0.0359075 4.0243 -5.28557e-17 -7.64102e-16 -7.8381e-18)
(3.76961e-16 0.0348965 4.03772 -9.04201e-17 -7.69005e-16 5.28107e-17)
(0 0.0339267 4.05079 -5.32943e-17 -8.06013e-16 8.72742e-17)
(0 0.0329974 4.06356 1.3112e-17 -7.91527e-16 7.83245e-17)
(1.85346e-16 0.0320775 4.07602 2.30151e-17 -7.15144e-16 3.56664e-17)
(0 0.0311972 4.08815 -6.94685e-17 -7.21867e-16 -2.91408e-17)
(0 0.0303259 4.10001 -7.63923e-17 -7.96357e-16 -2.24004e-17)
(0 0.0294632 4.11157 -8.49525e-18 -7.64333e-16 2.76867e-17)
(1.81248e-16 0.0286692 4.12284 -7.3584e-17 -7.46988e-16 -4.14722e-17)
(0 0.0278535 4.13386 -9.14872e-17 -7.68439e-16 6.39181e-18)
(-1.79233e-16 0.0270456 4.14457 -1.80403e-17 -7.65259e-16 7.22516e-17)
(0 0.0263051 4.15502 4.48528e-17 -7.56912e-16 -1.68032e-17)
(0 0.025572 4.1652 1.01299e-16 -7.69248e-16 -5.29025e-17)
(-3.52505e-16 0.0248171 4.17514 7.92958e-18 -7.35822e-16 -4.99863e-17)
(0 0.0240986 4.18481 -9.71812e-17 -7.43337e-16 -1.90773e-17)
(0 0.0234165 4.19424 -6.33667e-17 -7.55761e-16 -2.70543e-17)
(0 0.0227124 4.20343 -5.79169e-17 -7.22723e-16 -4.94135e-17)
(0 0.0220439 4.21237 -5.25283e-17 -7.4267e-16 -2.75035e-17)
(0 0.0213823 4.22112 -4.47111e-17 -7.05863e-16 5.86581e-18)
(0 0.0207273 4.22956 -9.37073e-17 -6.76134e-16 1.90033e-17)
(0 0.020107 4.23784 -5.85648e-17 -7.35941e-16 7.13398e-17)
(0 0.019493 4.24587 4.11067e-17 -6.87437e-16 1.57554e-16)
(0 0.0188851 4.25368 -5.12962e-19 -6.12008e-16 2.29876e-16)
(0 0.018256 4.26128 -1.30009e-16 -6.21783e-16 1.89962e-16)
(0 0.0176605 4.26862 -1.84841e-16 -6.45616e-16 1.239e-16)
(0 0.0170985 4.27578 -1.80685e-16 -6.1138e-16 7.96584e-17)
(0 0.0165151 4.28278 -1.17501e-16 -5.82469e-16 1.01476e-16)
(0 0.0159646 4.28948 -3.85949e-17 -5.90057e-16 1.51694e-16)
(3.24153e-16 0.0154198 4.29604 -1.66853e-17 -5.83174e-16 8.46075e-17)
(0 0.0148538 4.30233 1.26862e-17 -5.33104e-16 2.90283e-17)
(0 0.0142937 4.30849 4.79214e-17 -5.22892e-16 4.68462e-17)
(0 0.0137657 4.31438 5.35895e-17 -4.98421e-16 -1.08466e-16)
(3.16985e-16 0.0132432 4.32013 -1.77275e-17 -3.89677e-16 -1.03649e-17)
(3.15218e-16 0.012726 4.32562 -1.56468e-16 -3.31956e-16 3.22572e-18)
(0 0.0122143 4.33093 -1.78131e-16 -3.31493e-16 8.99695e-17)
(3.11714e-16 0.0116821 4.33611 -9.26633e-17 -3.12974e-16 1.33535e-16)
(-3.09976e-16 0.0111809 4.34102 -9.41592e-17 -2.5709e-16 1.66526e-16)
(-3.08248e-16 0.0106852 4.34575 -1.45717e-16 -2.81861e-16 1.00505e-16)
(0 0.0101945 4.35025 -9.47643e-17 -2.56519e-16 1.03655e-16)
(0 0.00970903 4.35463 -4.8192e-17 -1.61126e-16 5.38006e-17)
(-3.03122e-16 0.00920354 4.35878 -1.03115e-16 -1.259e-16 8.94743e-18)
(0 0.00872825 4.3627 -1.17174e-16 -1.37751e-16 5.5542e-17)
(0 0.00823339 4.36645 -5.58084e-17 -1.62927e-16 8.59437e-17)
(0 0.00774349 4.37002 -5.85324e-17 -1.29651e-16 1.61985e-16)
(0 0.00728353 4.37337 -8.87564e-17 -8.43529e-17 8.32299e-17)
(0 0.00682832 4.37654 -4.17105e-17 -1.04058e-16 7.38428e-17)
(0 0.00635391 4.37948 3.04523e-17 -1.18298e-16 4.97644e-17)
(-2.9149e-16 0.00586026 4.38229 2.28365e-17 -3.30587e-17 -8.56865e-17)
(0 0.00539596 4.38484 -4.24966e-17 3.08954e-17 6.47392e-17)
(0 0.00493666 4.3872 -8.17841e-17 6.17794e-18 1.37151e-16)
(0 0.00445867 4.38934 -9.37292e-17 -4.80017e-17 1.30606e-16)
(0 0.00398572 4.39131 2.51411e-17 -8.86136e-17 1.387e-16)
(0 0.00351803 4.39305 1.61567e-16 -9.27703e-18 8.19016e-17)
(0 0.0030553 4.39461 7.81721e-17 7.11977e-17 1.32831e-16)
(-2.80305e-16 0.00259776 4.39595 -2.36112e-17 3.90842e-17 1.34568e-16)
(0 0.00212209 4.39706 -5.24134e-17 4.26448e-17 9.15242e-17)
(0 0.00165165 4.39796 -6.72994e-17 3.25761e-17 7.99299e-17)
(0 0.00118639 4.39862 -7.3703e-17 -1.84573e-17 1.76396e-16)
(0 0.000726257 4.39907 -9.66775e-17 1.03577e-16 1.4833e-16)
(0 0.000248736 4.39929 -1.20065e-16 7.8378e-17 2.29204e-16)
(0 1.05778 0.138806 -3.18298e-14 -3.04758e-14 4.21901e-14)
(0 0.947626 0.378988 -2.61952e-14 9.84962e-15 2.52556e-14)
(-1.00517e-16 0.891456 0.613351 -8.67973e-15 1.32155e-14 1.02285e-14)
(0 0.824021 0.824021 3.45451e-16 1.3602e-14 2.6172e-16)
(0 0.751603 1.00274 4.90803e-15 1.05596e-14 -4.80444e-15)
(0 0.680498 1.15194 6.68105e-15 6.80107e-15 -6.73456e-15)
(0 0.614973 1.2782 6.83431e-15 3.63434e-15 -6.9266e-15)
(-1.30329e-16 0.556766 1.38747 6.275e-15 1.40897e-15 -6.34979e-15)
(0 0.505951 1.48404 5.44289e-15 -3.40033e-17 -5.56217e-15)
(0 0.461858 1.57086 4.59305e-15 -9.58386e-16 -4.75544e-15)
(1.28162e-16 0.423602 1.64994 3.90058e-15 -1.53019e-15 -4.02776e-15)
(-1.27447e-16 0.390289 1.72274 3.34857e-15 -1.87857e-15 -3.36183e-15)
(0 0.361135 1.79021 2.8431e-15 -2.08226e-15 -2.84579e-15)
(-2.52061e-16 0.335461 1.85317 2.43289e-15 -2.18357e-15 -2.3996e-15)
(0 0.312752 1.91214 2.08043e-15 -2.17293e-15 -2.08111e-15)
(-1.24629e-16 0.292564 1.96766 1.7241e-15 -2.16862e-15 -1.83479e-15)
(2.47869e-16 0.274476 2.02008 1.43143e-15 -2.18187e-15 -1.63779e-15)
(2.46487e-16 0.25818 2.06967 1.27846e-15 -2.10708e-15 -1.42935e-15)
(-4.90226e-16 0.243403 2.11674 1.19146e-15 -2.01988e-15 -1.19532e-15)
(0 0.23004 2.16148 1.00646e-15 -1.99648e-15 -1.05036e-15)
(0 0.217868 2.20409 8.42287e-16 -1.97261e-15 -9.28869e-16)
(0 0.206667 2.24476 7.77353e-16 -1.90134e-15 -8.15303e-16)
(0 0.196421 2.28366 6.51626e-16 -1.84161e-15 -7.45976e-16)
(4.76715e-16 0.186958 2.32085 5.6705e-16 -1.75906e-15 -6.64171e-16)
(-2.37029e-16 0.178185 2.35647 6.05189e-16 -1.67909e-15 -5.01676e-16)
(0 0.170054 2.39068 5.6642e-16 -1.62276e-15 -4.41724e-16)
(0 0.162475 2.42351 4.86946e-16 -1.60735e-15 -3.93432e-16)
(-2.33087e-16 0.15548 2.45501 4.5584e-16 -1.61522e-15 -3.52946e-16)
(0 0.148906 2.4854 4.07529e-16 -1.5387e-15 -3.61037e-16)
(0 0.142706 2.51464 3.10742e-16 -1.46415e-15 -3.30908e-16)
(2.29211e-16 0.136953 2.54277 2.44323e-16 -1.45267e-15 -3.59567e-16)
(4.55866e-16 0.131524 2.56992 3.34004e-16 -1.44007e-15 -3.02892e-16)
(-4.53325e-16 0.126416 2.59614 3.74313e-16 -1.34664e-15 -2.65965e-16)
(2.25399e-16 0.121586 2.62143 2.51805e-16 -1.23474e-15 -2.75529e-16)
(2.24142e-16 0.11703 2.64587 2.66907e-16 -1.2213e-15 -2.35676e-16)
(-2.22893e-16 0.112743 2.66948 3.28541e-16 -1.19358e-15 -1.68891e-16)
(0 0.108647 2.69232 1.96711e-16 -1.13963e-15 -2.0424e-16)
(0 0.104778 2.71442 9.3462e-17 -1.14576e-15 -1.61769e-16)
(0 0.101094 2.7358 1.36442e-16 -1.20159e-15 -1.51593e-16)
(-4.35929e-16 0.0975924 2.75657 1.8004e-16 -1.18492e-15 -1.64193e-16)
(0 0.0942715 2.77662 1.81173e-16 -1.07139e-15 -1.79325e-16)
(0 0.091092 2.79605 1.90689e-16 -9.91326e-16 -1.8985e-16)
(0 0.0880522 2.81491 1.40233e-16 -9.25641e-16 -1.5312e-16)
(4.2629e-16 0.0851497 2.83323 5.3211e-17 -9.00747e-16 -1.00318e-16)
(0 0.0824179 2.85097 6.97609e-17 -9.40291e-16 -4.49858e-17)
(-2.10775e-16 0.0797842 2.86819 1.17732e-16 -9.51924e-16 -2.70806e-19)
(0 0.0772121 2.88491 4.40761e-17 -9.01143e-16 -5.35597e-18)
(0 0.0748047 2.9012 -8.14399e-17 -8.65292e-16 2.06714e-17)
(2.0727e-16 0.0724911 2.9169 -7.82624e-17 -9.15968e-16 6.98944e-17)
(-2.06115e-16 0.070235 2.93225 -5.3316e-18 -9.27312e-16 4.89122e-17)
(0 0.0681042 2.94716 1.52298e-17 -8.94876e-16 6.31162e-17)
(0 0.066029 2.96162 -1.28013e-17 -8.92435e-16 4.4092e-17)
(0 0.064042 2.97569 -3.20081e-18 -9.15747e-16 -1.54742e-17)
(2.01557e-16 0.0621424 2.98939 1.27165e-17 -8.64652e-16 -5.08505e-18)
(0 0.0602953 3.0027 3.60566e-17 -7.92486e-16 -3.12282e-17)
(-1.99317e-16 0.0585331 3.01561 1.31822e-16 -7.79226e-16 9.52235e-17)
(-1.98205e-16 0.0568218 3.02821 1.25709e-16 -7.79237e-16 6.7442e-17)
(0 0.0551604 3.0405 5.0755e-17 -7.94829e-16 1.92453e-17)
(0 0.0535485 3.05239 1.85495e-17 -7.69085e-16 3.84225e-17)
(0 0.0520175 3.06402 -1.59115e-17 -7.62861e-16 4.78583e-17)
(3.87646e-16 0.0505345 3.07529 1.922e-17 -8.06544e-16 7.56276e-17)
(-3.85485e-16 0.0490662 3.08633 1.06249e-16 -8.19457e-16 8.4603e-18)
(0 0.0476764 3.09702 1.0927e-16 -7.57694e-16 -1.19731e-16)
(0 0.0463008 3.10745 4.16443e-17 -6.96127e-16 -1.43989e-16)
(0 0.0450018 3.11761 1.80522e-17 -7.15562e-16 -2.74642e-17)
(0 0.0437476 3.1275 -1.50929e-17 -6.64966e-16 6.98651e-17)
(-3.7486e-16 0.0424746 3.13713 -7.84796e-17 -6.51931e-16 6.30753e-17)
(0 0.0412764 3.14649 -5.73341e-17 -7.13517e-16 2.13737e-17)
(0 0.0401212 3.15563 3.78642e-17 -7.16115e-16 7.88788e-17)
(-7.37252e-16 0.0389776 3.1645 4.02195e-17 -7.14553e-16 1.1042e-16)
(0 0.0378759 3.1732 -8.04182e-17 -6.98329e-16 -9.27291e-17)
(0 0.0368156 3.18159 -7.15158e-17 -6.73477e-16 -6.65486e-17)
(0 0.0357661 3.18984 -5.04162e-18 -6.86262e-16 1.09587e-17)
(-3.60475e-16 0.0347569 3.19782 -6.89493e-17 -6.62594e-16 -1.95578e-17)
(0 0.0337581 3.20559 -7.90247e-17 -6.03785e-16 2.49764e-17)
(3.56468e-16 0.0327692 3.21322 -1.17045e-17 -6.55386e-16 1.27435e-16)
(3.54481e-16 0.0318198 3.22058 3.81406e-17 -7.07562e-16 5.06145e-17)
(0 0.0309092 3.22777 9.37598e-17 -6.8454e-16 -3.80957e-17)
(7.01079e-16 0.030008 3.23474 1.72757e-17 -6.21379e-16 -8.33524e-17)
(3.48586e-16 0.0291157 3.24157 -8.01718e-17 -6.16741e-16 3.21352e-18)
(3.46642e-16 0.0282613 3.24818 -3.2451e-17 -6.47638e-16 2.74535e-17)
(0 0.0274155 3.25461 -4.4902e-17 -6.19117e-16 -1.3895e-16)
(-3.42789e-16 0.0266067 3.26091 -4.94798e-17 -5.7524e-16 -1.05614e-16)
(0 0.025778 3.26699 -1.73828e-17 -5.57975e-16 4.34828e-17)
(3.38978e-16 0.0249855 3.27289 -7.48721e-17 -5.36457e-16 -3.5029e-17)
(0 0.0242294 3.27866 -3.85501e-17 -5.1105e-16 7.33025e-17)
(-3.35209e-16 0.0234529 3.28425 6.71203e-17 -4.91369e-16 2.61846e-16)
(-3.33341e-16 0.0227121 3.28966 -1.7809e-18 -5.10549e-16 2.23473e-16)
(0 0.0219513 3.2949 -1.40475e-16 -5.6117e-16 1.65021e-16)
(3.29635e-16 0.0212255 3.30004 -1.43065e-16 -5.49343e-16 1.30679e-16)
(-3.27797e-16 0.0205618 3.30501 -1.11189e-16 -5.06102e-16 1.79694e-16)
(0 0.0198508 3.3098 -1.13945e-16 -4.47821e-16 5.60837e-17)