/*--------------------------------*- C++ -*----------------------------------*\
| =========                 |                                                 |
| \\      /  F ield         | OpenFOAM: The Open Source CFD Toolbox           |
|  \\    /   O peration     | Version:  4.x                                   |
|   \\  /    A nd           | Web:      www.OpenFOAM.org                      |
|    \\/     M anipulation  |                                                 |
\*---------------------------------------------------------------------------*/
FoamFile
{
    version     2.0;
    format      ascii;
    class       volVectorField;
    location    "98.96";
    object      U;
}
// * * * * * * * * * * * * * * * * * * * * * * * * * * * * * * * * * * * * * //

dimensions      [0 1 -1 0 0 0 0];

internalField   nonuniform List<vector> 
15625
(
(0.0005778039325843019 -6.56537269024913e-10 -6.565372690249146e-10)
(0.001598690167886053 4.200682200569669e-08 -3.665148823603938e-08)
(0.002536200040585849 4.2428320641542897e-07 -1.828708986323514e-07)
(0.00342542641751682 1.6168438168961647e-06 -4.4994204562732867e-07)
(0.004282826516147936 4.0735014567977325e-06 -8.198430762688272e-07)
(0.00511303224740022 8.155022172958232e-06 -1.2561041099792759e-06)
(0.005923566369488272 1.4148332552291815e-05 -1.753652202250329e-06)
(0.006714455907468613 2.232390281607737e-05 -2.306526991978505e-06)
(0.007489412469625664 3.299149505060186e-05 -2.9383748853977357e-06)
(0.008247787768059872 4.653512927073755e-05 -3.661269777061609e-06)
(0.008989306287276736 6.339427827991472e-05 -4.485313631955013e-06)
(0.009714248187968155 8.402344207521491e-05 -5.4119647202440335e-06)
(0.010420088297473167 0.00010884160391677036 -6.415670463455491e-06)
(0.011105402979990612 0.00013814552816815255 -7.465669035159365e-06)
(0.011768816094227374 0.00017209109992382112 -8.523991665632702e-06)
(0.012407600076773577 0.00021065025700958752 -9.540531318125381e-06)
(0.013019720324105132 0.00025360387968903345 -1.0473575137701347e-05)
(0.013603732165707705 0.0003005713652592651 -1.1289484592929177e-05)
(0.014157911780566171 0.0003510094396121977 -1.1958512498740286e-05)
(0.014680739131895642 0.000404284564954005 -1.245890057799329e-05)
(0.015171499041666234 0.0004596784346070375 -1.2787075203802002e-05)
(0.015629765811459796 0.0005164546274664251 -1.2944018326601077e-05)
(0.016055393810995213 0.0005738797625221275 -1.2933713356803849e-05)
(0.016448533878789546 0.0006312517147683866 -1.2767517684805065e-05)
(0.016809692086687183 0.0006879146640760941 -1.24657507379698e-05)
(0.017139692137912 0.0007432835450123369 -1.204712685912139e-05)
(0.017439699649695075 0.0007968567165133332 -1.1527813331998383e-05)
(0.01771088374024185 0.0008481969815636274 -1.0925829337231911e-05)
(0.01795439073563763 0.000896945658941135 -1.0261507642446134e-05)
(0.01817161332492156 0.0009428061630283233 -9.552003616261717e-06)
(0.01836430225485586 0.0009855747334200206 -8.809090242015322e-06)
(0.01853409667734834 0.0010250822366423857 -8.04457907862659e-06)
(0.018682259410703207 0.0010612240513324135 -7.270939305610533e-06)
(0.018810140014845524 0.0010939225391756234 -6.49966503815656e-06)
(0.01891948025382174 0.0011231729789697611 -5.737409848094049e-06)
(0.019012080704579947 0.0011489927082784326 -4.989926271222569e-06)
(0.019089191245517733 0.001171430546543416 -4.26365205768945e-06)
(0.019151849776793045 0.0011905530137147683 -3.565326208181535e-06)
(0.019201429467827644 0.0012064623557372376 -2.8993258350697364e-06)
(0.019239625231659088 0.001219295099000928 -2.2677855495376496e-06)
(0.01926784421428076 0.0012291918959877804 -1.6725071486486584e-06)
(0.019286790116321118 0.001236293527149286 -1.114700645235754e-06)
(0.019297176720397966 0.0012407485924918785 -5.955516446587999e-07)
(0.01930019783242329 0.0012427276857426756 -1.1643825750956997e-07)
(0.019297227315096997 0.0012424130111591029 3.2131054088761796e-07)
(0.019289074118003673 0.00123997420857018 7.196115781909588e-07)
(0.019275958179429543 0.0012355677042672334 1.0837612725263698e-06)
(0.019258278505897408 0.0012293390681123533 1.4193424547944845e-06)
(0.01923705305375386 0.0012213903670714365 1.731982474370769e-06)
(0.01921339025080432 0.001211816423817271 2.0271346165512146e-06)
(0.019187699692138308 0.0012006922685487292 2.3062633565528985e-06)
(0.019159914947638444 0.0011880803315325557 2.56809733490556e-06)
(0.019130270012552703 0.0011740559497265938 2.8109326964919238e-06)
(0.019099709816379838 0.0011587213525688922 3.0322341783942786e-06)
(0.01906922725540436 0.0011421851478879148 3.2296271861075187e-06)
(0.01903906082182011 0.0011245520558208991 3.404041286854882e-06)
(0.01900901352784617 0.001105926139888006 3.5583529737990846e-06)
(0.018979208325836692 0.001086402956821882 3.6953389680395187e-06)
(0.018950475368965415 0.0010660554693009074 3.817397189975267e-06)
(0.018923680238170437 0.0010449562458981262 3.926554666110498e-06)
(0.018898887928303378 0.001023182391644366 4.020898145469094e-06)
(0.018875683619985924 0.001000814972761637 4.096121435458431e-06)
(0.01885393279546883 0.0009779541051582084 4.148230177834576e-06)
(0.018834206836085016 0.000954741482500793 4.174236971561704e-06)
(0.01881713743527669 0.0009313283790718012 4.1715830729418104e-06)
(0.018802606788547515 0.0009078607447230802 4.14214696220544e-06)
(0.018789963794219742 0.0008844822443306897 4.090981292198669e-06)
(0.018778817326749127 0.0008613037342273178 4.0257786713136325e-06)
(0.018769633763356202 0.0008383282257157385 3.9616349595405194e-06)
(0.0187630216043807 0.0008155349174944647 3.914826694840322e-06)
(0.018758983389169006 0.0007928438252164186 3.890233859648934e-06)
(0.01875697169086203 0.0007701209429212165 3.882412810101974e-06)
(0.01875663131345786 0.0007472511469035434 3.885421278034919e-06)
(0.01875852084379948 0.0007242168432641755 3.893294558298425e-06)
(0.018763428099871485 0.0007010256549404003 3.899972135874637e-06)
(0.01877149623789877 0.0006776933173829472 3.901090699949387e-06)
(0.018782095328736495 0.0006542451901874131 3.894345590849532e-06)
(0.018794718343511072 0.0006307172977162089 3.8774398570076965e-06)
(0.01880988739244694 0.0006071984601568222 3.847784582546952e-06)
(0.018828491815172682 0.0005837977733924517 3.8026955969684553e-06)
(0.018850809863674753 0.0005605978399579631 3.7429723000189683e-06)
(0.01887615488508642 0.0005376381604192132 3.6748695909560374e-06)
(0.018903867921560607 0.0005149578787841134 3.6041180088197026e-06)
(0.018934264052860767 0.0004926140140860963 3.5277208919660565e-06)
(0.018968114787759918 0.00047067309935989467 3.4385568585512452e-06)
(0.019005601456656303 0.0004492210983245528 3.3316229329007464e-06)
(0.019045734785056022 0.00042837962728085275 3.2062757257655573e-06)
(0.019087470267031673 0.0004082747368859322 3.0628981994098977e-06)
(0.019130768361643184 0.00038900683540964327 2.9069190661830904e-06)
(0.019176155821940304 0.00037066287245781027 2.7467105047930154e-06)
(0.019223690998186077 0.0003532739169012795 2.5906714982466926e-06)
(0.019272358121838546 0.00033674407895022 2.446856094259289e-06)
(0.019321079656055607 0.00032096248818300026 2.3223985157908376e-06)
(0.019369936916272888 0.00030587101725950046 2.2131957626316493e-06)
(0.0194197197491041 0.0002914428554703252 2.108240336851345e-06)
(0.019470626588766523 0.00027762571892273817 2.0048444744156594e-06)
(0.019521472894037578 0.0002643104959216958 1.9196871920254188e-06)
(0.0195710102078562 0.00025137380326425567 1.870057925700134e-06)
(0.0196195045195511 0.00023865906337061917 1.849321110124679e-06)
(0.019668092149165237 0.0002259891576027877 1.8370169674155175e-06)
(0.019717276206651348 0.00021328745587348473 1.81846069695006e-06)
(0.019766274792867248 0.00020067871510172602 1.7911232773198864e-06)
(0.019814312454077932 0.00018828956504569395 1.7553681795688e-06)
(0.01986188085418313 0.0001760686680325084 1.7227632858924197e-06)
(0.0199100398840997 0.00016388484908883623 1.7097194782976548e-06)
(0.019959168443306755 0.00015168800869133677 1.712863158539721e-06)
(0.02000866564027808 0.00013954485046541282 1.7006137104650578e-06)
(0.02005799735592796 0.0001275580103489423 1.6467899319136337e-06)
(0.02010731646314843 0.00011594431207119999 1.5619592847857916e-06)
(0.02015692412402533 0.00010494722951871749 1.4668006764607264e-06)
(0.020206284361118244 9.463493566139563e-05 1.3720449720808387e-06)
(0.020254151046847375 8.492761290973973e-05 1.280045788173409e-06)
(0.020299667427520682 7.57781764653393e-05 1.191203552688344e-06)
(0.020342934603005156 6.722523112227351e-05 1.1020497073048643e-06)
(0.020384008779665484 5.931907670566957e-05 1.0093468738586128e-06)
(0.020421858557064694 5.2105775046930955e-05 9.149884447954674e-07)
(0.020455081560860695 4.562053092319746e-05 8.23028998351197e-07)
(0.020483639151972616 3.9706747793747865e-05 7.400489411537576e-07)
(0.02050876289398088 3.403075112359343e-05 6.749966877494599e-07)
(0.02053093750397111 2.861373699433083e-05 6.357489506708503e-07)
(0.020548996650248483 2.4221431025809405e-05 6.275514113945444e-07)
(0.020561955988616182 2.0906627632045568e-05 6.513023727879323e-07)
(0.02057064813963076 1.5068026827591349e-05 6.894737602455532e-07)
(0.020576446342970744 1.9725314103728825e-06 7.188389481933545e-07)
(0.020580771709642034 -2.3271893077336775e-05 7.15382074013753e-07)
(0.0015986901678860536 -3.6651488236039394e-08 4.200682200569671e-08)
(0.004579669461718735 -1.7856251374491234e-07 -1.7856251374491232e-07)
(0.007369383052832687 3.2442876091259716e-07 -1.2573560215214124e-06)
(0.010029892200182855 2.6442038516988552e-06 -3.303125353275216e-06)
(0.012597806075746013 7.971152900073235e-06 -6.204463552228456e-06)
(0.015089467368499058 1.7374211598226693e-05 -9.777960529754955e-06)
(0.01752107850972092 3.182938570117996e-05 -1.3966633452932106e-05)
(0.019896695967127905 5.2302444968127145e-05 -1.8768840947922782e-05)
(0.022223554175729656 7.984692929411156e-05 -2.4301203294136445e-05)
(0.02450139579386476 0.00011561948656180874 -3.064124792162732e-05)
(0.02672942788794138 0.00016083530417519386 -3.7821263713725854e-05)
(0.02890664561668939 0.00021666484535004502 -4.5788809450774396e-05)
(0.03102713907954807 0.0002840981121985161 -5.434152685975665e-05)
(0.03308609538771037 0.0003637924795320702 -6.320958725912623e-05)
(0.035078430086388904 0.00045603164441786057 -7.207007041737075e-05)
(0.03699684105071739 0.0005606139161198133 -8.054657348498656e-05)
(0.03883523376862816 0.0006768847111077176 -8.831128337040268e-05)
(0.040588625643603445 0.0008038076670669498 -9.508791147006725e-05)
(0.04225209616015988 0.0009399463402742542 -0.00010065721327160914)
(0.043821431801508604 0.0010836508614837069 -0.00010486127792334345)
(0.04529431553235339 0.0012330877914829628 -0.00010765897687377206)
(0.04666936395814162 0.0013863724470239746 -0.00010905212899930291)
(0.047946276660964876 0.0015416113431730486 -0.00010908449811350826)
(0.04912562010087967 0.0016969944731836846 -0.00010784727234964835)
(0.050208966269855625 0.0018508359375272894 -0.00010548681157740329)
(0.051198767935116095 0.0020016054260418577 -0.00010214737430061254)
(0.05209842769490588 0.002147956129639789 -9.796641373606046e-05)
(0.05291149239836304 0.002288709918099773 -9.308888201015498e-05)
(0.05364160932225975 0.0024228964031275725 -8.766832535344209e-05)
(0.05429299499613473 0.0025496899729908753 -8.184069340940585e-05)
(0.054870662249441225 0.002668481120364248 -7.571188115957427e-05)
(0.05537943414289198 0.002778760330659356 -6.9385052062022e-05)
(0.05582338014861122 0.002880214861772349 -6.295921758548152e-05)
(0.056206756878288314 0.0029725999429858515 -5.652631589869829e-05)
(0.05653452455028071 0.0030558411265859398 -5.014686756830601e-05)
(0.056811770379322696 0.0031299197848908182 -4.387527016879227e-05)
(0.05704242372703852 0.003194930622397876 -3.776559781462529e-05)
(0.05722998722868839 0.0032510278479173215 -3.187192191052486e-05)
(0.05737855491450412 0.003298449058212321 -2.6233558352582225e-05)
(0.05749279213222466 0.003337511925544662 -2.0875825822201197e-05)
(0.057576742671491384 0.0033685610994389067 -1.581853434640182e-05)
(0.0576329020045423 0.003391978129177457 -1.1070083786970464e-05)
(0.05766377170715525 0.003408162339142237 -6.637294884432809e-06)
(0.057672673264281826 0.003417524903147218 -2.5256797355389553e-06)
(0.05766325221391609 0.003420490411236496 1.2605209581013626e-06)
(0.057637926269073304 0.0034174666666621023 4.736209421872981e-06)
(0.05759783261349519 0.0034088437027115625 7.936216318889308e-06)
(0.05754446258829394 0.003394991000614306 1.0897251707421517e-05)
(0.05748049790290536 0.0033761871962380233 1.3656587990536985e-05)
(0.05740879926555048 0.003352699246566176 1.6250495538442584e-05)
(0.05733071540658435 0.003324770909092263 1.868986038297268e-05)
(0.05724657027684136 0.0032926331581830852 2.0968185710037724e-05)
(0.057157304600044104 0.0032565285609461167 2.3077161441057438e-05)
(0.05706530062692521 0.0032167153661576903 2.5005249746589632e-05)
(0.05697304379238047 0.0031734625390834144 2.6741779609064155e-05)
(0.05688142793673031 0.0031270476356941475 2.829145310249786e-05)
(0.05679043354340638 0.0030777575795811647 2.966806324838253e-05)
(0.05670067712343204 0.0030258616397037634 3.0887394851334786e-05)
(0.05661416837564619 0.00297157895333773 3.196871229363165e-05)
(0.05653298244492115 0.0029151300302271326 3.292926651275645e-05)
(0.05645747672231628 0.0028567515190537143 3.375572008984336e-05)
(0.05638698169670043 0.002796693441830856 3.44161904853345e-05)
(0.05632136689104962 0.0027352372281671576 3.488320068458664e-05)
(0.05626185748039977 0.002672727023351311 3.5141767640412615e-05)
(0.05620978690182388 0.0026095239561638047 3.51806387148185e-05)
(0.056164918589399024 0.0025459681019445427 3.501653624288413e-05)
(0.05612589874983696 0.0024823881034279033 3.468625037335702e-05)
(0.056091911110368944 0.002419045507703147 3.4244820314496865e-05)
(0.056063915050441185 0.002355979319582164 3.3798439587362846e-05)
(0.05604316666891668 0.002293179793444245 3.3461720510052734e-05)
(0.05602972415037367 0.0022305061807450944 3.3274350299973924e-05)
(0.05602255857224024 0.0021676982979237825 3.32081741959589e-05)
(0.0560210388421503 0.0021045265038305626 3.322887113257108e-05)
(0.05602640965726127 0.0020409276974038292 3.3289497752733615e-05)
(0.05604038710846007 0.001976882832928009 3.333908540581336e-05)
(0.056063334583894 0.001912440570909258 3.3338946250563174e-05)
(0.05609399306111921 0.0018477304006633854 3.326532950840054e-05)
(0.056131369473071874 0.0017828977725500214 3.3097367190611215e-05)
(0.05617666983018598 0.0017181326412391905 3.2828870252843114e-05)
(0.056231885821201054 0.0016536441568303906 3.245897161679018e-05)
(0.05629767925417015 0.0015896002205146376 3.1997643206397105e-05)
(0.05637261150357863 0.00152610096746494 3.1471679244077383e-05)
(0.056455291198794604 0.0014632512922775679 3.090394154178752e-05)
(0.0565463432550477 0.001401217076308733 3.027140532401538e-05)
(0.056647335754635195 0.0013401961059809541 2.9529225250151205e-05)
(0.05675854382530218 0.0012804408571282773 2.8642852189342853e-05)
(0.05687768307745615 0.0012223037408474002 2.759924412858248e-05)
(0.05700232861697622 0.0011661458892027131 2.6393709091973747e-05)
(0.05713210259667702 0.001112218510923143 2.5079699901381716e-05)
(0.05726777594143352 0.0010607132157328858 2.3744384973362855e-05)
(0.05740916973953853 0.001011688943287219 2.2463691158415458e-05)
(0.05755393950117991 0.0009649045405758874 2.1284291805115568e-05)
(0.05769962176917526 0.0009200828287798251 2.0244110247449795e-05)
(0.05784623088258858 0.0008770694964637444 1.9319083954353048e-05)
(0.05799529374006686 0.0008357828510350906 1.8447065830505287e-05)
(0.05814704122757558 0.0007960722937217307 1.7616838874258915e-05)
(0.05829868323636935 0.000757634210199349 1.6935415974832497e-05)
(0.05844729465573488 0.0007201352691715084 1.6512264386330886e-05)
(0.058593352989593415 0.0006832386843719455 1.6297382871365268e-05)
(0.058739290272286825 0.0006466022524123735 1.6148554790321978e-05)
(0.058886205693969546 0.000610063080497698 1.5963686762307094e-05)
(0.059032489682704754 0.0005738178474561748 1.572506517382673e-05)
(0.05917655513563577 0.0005380750950460518 1.5432919953084696e-05)
(0.05931954249859885 0.0005027924141023241 1.5149842051574068e-05)
(0.05946381875739682 0.0004678161293395566 1.4965231466599097e-05)
(0.05961036745208883 0.0004331430695112562 1.4853298327056975e-05)
(0.059758178425832226 0.0003989855306981554 1.4624111696234794e-05)
(0.05990626470604157 0.0003656031718339666 1.412177356291713e-05)
(0.06005451337269154 0.00033337308375789817 1.3416488965608991e-05)
(0.06020296628414803 0.0003026976018376536 1.2640672176309345e-05)
(0.0603501567393076 0.00027370948162836487 1.1863515383933213e-05)
(0.060493334988610065 0.0002463139819898927 1.1100968934236546e-05)
(0.06063035157465032 0.00022046044449533487 1.0354991234172108e-05)
(0.06076057734608928 0.00019621530429099753 9.599411246142206e-06)
(0.06088328335459563 0.00017367520348080044 8.810552555020823e-06)
(0.06099595005050784 0.0001530172788825455 8.007149993041167e-06)
(0.0610954693322748 0.0001344189711870571 7.2260678148672276e-06)
(0.06118169337189029 0.0001174028473669035 6.528998727086102e-06)
(0.06125723109577738 0.00010088600275241987 6.0008257479646025e-06)
(0.06132306233293532 8.486935140495058e-05 5.704922116561729e-06)
(0.06137656791911001 7.163442912541432e-05 5.656610682813675e-06)
(0.06141560321832616 6.147864723368242e-05 5.840845415506916e-06)
(0.06144233508628206 4.4401853573245645e-05 6.132089009415168e-06)
(0.06146021847393695 7.2179964538431e-06 6.370126004183813e-06)
(0.061472829322623074 -6.370180319306871e-05 6.389294368129164e-06)
(0.002536200040585849 -1.8287089863235123e-07 4.242832064154288e-07)
(0.007369383052832687 -1.2573560215214124e-06 3.244287609125969e-07)
(0.0119605841232141 -2.009708153785352e-06 -2.0097081537853535e-06)
(0.016368326890104572 -6.39810262329286e-07 -6.824107052139859e-06)
(0.020634792947922247 4.676011890853731e-06 -1.3903759489925114e-05)
(0.02478272908029433 1.568133478386565e-05 -2.294649898978208e-05)
(0.028833151410063658 3.4084613295620785e-05 -3.38399727361582e-05)
(0.032793457600135655 6.163583257816818e-05 -4.66306711750534e-05)
(0.03667254603986228 0.00010019157815654077 -6.151231141594982e-05)
(0.04047043325039312 0.00015167823091546132 -7.860518857678385e-05)
(0.04418531905615122 0.00021798632481476865 -9.787491058637367e-05)
(0.04781407958147421 0.00030082030062869624 -0.00011906294016161126)
(0.051347754220187815 0.0004015166078972673 -0.00014161627944897902)
(0.054777828388312154 0.0005208607696291726 -0.00016480624416853373)
(0.058095168937742976 0.00065907030614198 -0.00018779539478964115)
(0.06128830551802845 0.0008156664862446494 -0.00020967923808545112)
(0.06434720832732668 0.000989553048267522 -0.0002296619066002287)
(0.06726327521760898 0.0011791214123937717 -0.00024706596216304746)
(0.07002870025159987 0.00138224878696938 -0.00026138444994754757)
(0.0726369291490752 0.0015965390616416596 -0.00027225822231884665)
(0.07508416456139558 0.0018193700307928275 -0.0002795816341936155)
(0.07736819963860771 0.0020480604160006363 -0.0002833598132255285)
(0.07948879131951225 0.002279930119621633 -0.0002837178278816371)
(0.08144709392948352 0.002512412696434824 -0.00028088193496767356)
(0.08324585417736485 0.002743109519123902 -0.00027519272651858043)
(0.08488919560923935 0.0029698263423034413 -0.0002669968746540989)
(0.08638272717095061 0.003190610338861097 -0.0002566388356505473)
(0.08773239794558485 0.0034037323723227486 -0.0002444740081958137)
(0.08894445240279043 0.003607740010361338 -0.00023086879048813652)
(0.09002592501013414 0.0038013784148081126 -0.000216157573618886)
(0.09098492084618084 0.003983690172617736 -0.00020061915375926506)
(0.09182935307150593 0.004153859940620639 -0.0001845217120130615)
(0.09256620579202604 0.00431135676806317 -0.000168110724479298)
(0.09320270664336555 0.004455745840539976 -0.00015161570765077724)
(0.09374683015821518 0.004586836680301171 -0.00013520009575278258)
(0.09420671799082907 0.0047045190682688575 -0.00011901405915438599)
(0.09458903572360144 0.004808859619698536 -0.0001031984875499737)
(0.09489992924172769 0.004900016222077484 -8.789087218838071e-05)
(0.09514615627902695 0.0049782758818977 -7.319968531675041e-05)
(0.09533507138370993 0.005044049447936942 -5.920590081646564e-05)
(0.09547321923970882 0.005097797284948032 -4.597115795583341e-05)
(0.09556508957146352 0.005140056432986661 -3.35154790107576e-05)
(0.09561515640251848 0.0051713882022272305 -2.1851910465013164e-05)
(0.09562866509261357 0.005192346369306383 -1.0982573934600196e-05)
(0.09561119379165084 0.005203494087724961 -9.0395233027991e-07)
(0.09556674388003496 0.005205367399051824 8.420858353594713e-06)
(0.09549767183445061 0.00519847374561595 1.706350691031388e-05)
(0.09540675015778441 0.005183308059131801 2.5097988226890328e-05)
(0.09529809673283611 0.005160290935385583 3.259552689237269e-05)
(0.0951760408147256 0.005129839408440809 3.962504474268988e-05)
(0.09504296921482933 0.005092354986381627 4.621096196169839e-05)
(0.09489995937995524 0.005048233662130985 5.234730663904182e-05)
(0.09474881465060819 0.004997872694772282 5.802559467803686e-05)
(0.09459300894440384 0.004941653095505722 6.323290766229864e-05)
(0.09443614703443845 0.004879966700686013 6.795733686811126e-05)
(0.09427991582610307 0.004813222664712917 7.220498301063919e-05)
(0.09412491008988311 0.004741846821033095 7.59926881884349e-05)
(0.09397243484358381 0.004666253942283137 7.934676726186577e-05)
(0.09382532962332157 0.004586816799042773 8.231285850309498e-05)
(0.09368649471874085 0.004503914164114285 8.493361517783147e-05)
(0.09355666178860342 0.004417932329328509 8.718240988919669e-05)
(0.09343526936194015 0.004329267999579806 8.899068644172954e-05)
(0.0933223514397824 0.004238344939464058 9.030385175050519e-05)
(0.093219437587708 0.0041456321414868 9.11049613338932e-05)
(0.09312816656425449 0.00405161409929528 9.138639008997155e-05)
(0.09304826762618204 0.0039567245100975345 9.119146769441533e-05)
(0.09297811111235699 0.0038613655520773832 9.06002267925693e-05)
(0.09291673926870417 0.003765875121986943 8.973187907438127e-05)
(0.09286540925704016 0.0036703731683178165 8.881574360145534e-05)
(0.09282575153310607 0.003574931088747234 8.809997700690422e-05)
(0.09279794450715564 0.0034794376489132935 8.768405246126806e-05)
(0.0927808491485319 0.0033836154466647377 8.753289566162995e-05)
(0.09277381283513332 0.00328721740395013 8.759116593279323e-05)
(0.09277846607782457 0.0031901702534079296 8.774382787177016e-05)
(0.09279701426118385 0.0030924477417968465 8.785860330558501e-05)
(0.09282999011209987 0.0029941302161190283 8.783625545243043e-05)
(0.09287591990132199 0.0028954252640865825 8.761770712748551e-05)
(0.09293367432901534 0.002796556174491739 8.715412577153625e-05)
(0.09300492342874066 0.0026977631043673183 8.644939422980752e-05)
(0.09309233872506288 0.002599296529530134 8.552644732373579e-05)
(0.09319685356992603 0.0025013617676012934 8.441359691896905e-05)
(0.0933166554001713 0.0024040895948753208 8.31470260879214e-05)
(0.09344996442718177 0.0023076234569049158 8.175257895375871e-05)
(0.0935974119480689 0.0022122259161493326 8.016579855866768e-05)
(0.0937607539276581 0.0021182205868984006 7.827899175670439e-05)
(0.09394016519268292 0.0020260090838975157 7.600924447511692e-05)
(0.0941326969644413 0.0019361341150215083 7.332529554882481e-05)
(0.09433519779488084 0.0018491467375409162 7.021793210218939e-05)
(0.09454676933571521 0.0017653943920101077 6.68362582773869e-05)
(0.09476776996589203 0.0016851128761403802 6.342116692636574e-05)
(0.09499752719705604 0.0016083642508362707 6.0171085302755816e-05)
(0.09523303832719975 0.0015348191043024879 5.71783080972189e-05)
(0.09547118191398232 0.0014640993794915208 5.451189333683194e-05)
(0.09571173518404096 0.0013959750866883941 5.21251796079958e-05)
(0.09595624132955886 0.0013303030839509765 4.9900408357691215e-05)
(0.09620470312803724 0.001266856130523592 4.782179347511062e-05)
(0.0964535450398941 0.0012052222209778772 4.610986829777826e-05)
(0.09669902070766831 0.0011449562985910218 4.498797353661777e-05)
(0.09694137733154881 0.0010856484380466684 4.4339077564269234e-05)
(0.09718315248700604 0.0010269044320680447 4.3849203402912135e-05)
(0.09742542248670358 0.0009685152816680344 4.3294026137426746e-05)
(0.09766629454243955 0.0009106443043259701 4.263745665557765e-05)
(0.09790396774499469 0.0008534828883026706 4.187675820638842e-05)
(0.09814013970528139 0.0007970848366821081 4.1099371756673806e-05)
(0.09837808465697916 0.0007414458937089315 4.04309928136382e-05)
(0.0986192607604224 0.0006867176067652896 3.9810305008502206e-05)
(0.09886250701626476 0.0006332722757453201 3.8909786795005405e-05)
(0.0991066019754029 0.0005814872550428971 3.7467025255638535e-05)
(0.09935105037471763 0.0005316511434461722 3.563241369001844e-05)
(0.09959544378769662 0.0004840248304316248 3.3669180922124124e-05)
(0.09983758215585985 0.00043873088823431745 3.1704647529842287e-05)
(0.1000737376001618 0.0003957753768809396 2.9751605082453638e-05)
(0.10030061998592812 0.0003551863573388018 2.78014669201313e-05)
(0.10051615191674536 0.00031704911268872887 2.580529946751915e-05)
(0.10071815934338962 0.00028148390616073495 2.372381636611256e-05)
(0.10090315640561064 0.00024876893980947917 2.1617316827576964e-05)
(0.10106726982396845 0.00021919193406141901 1.9589208229085533e-05)
(0.10121021066559943 0.00019195002278259518 1.7805529773781748e-05)
(0.10133502750667266 0.00016523180861017375 1.649069989077484e-05)
(0.1014428297933757 0.0001390060329367171 1.5794968813365918e-05)
(0.10153043893417002 0.00011698927479878757 1.5706637977563947e-05)
(0.1015953486584499 9.983341484022217e-05 1.6148403983769592e-05)
(0.10164066608791267 7.21434068995071e-05 1.684030453334037e-05)
(0.10167118333756907 1.3564113939040593e-05 1.7437536227522898e-05)
(0.10169186122747398 -9.69432427708842e-05 1.7583567386579998e-05)
(0.00342542641751682 -4.499420456273289e-07 1.616843816896165e-06)
(0.010029892200182855 -3.3031253532752143e-06 2.644203851698856e-06)
(0.016368326890104576 -6.824107052139863e-06 -6.398102623292871e-07)
(0.022489435627049123 -8.54103871075897e-06 -8.541038710758967e-06)
(0.028433108685511427 -6.020098256470432e-06 -2.0753047303919028e-05)
(0.034223071372859015 3.1198787206782674e-06 -3.689042519451736e-05)
(0.0398816628913664 2.130566430642565e-05 -5.6860751275124936e-05)
(0.04541744055547863 5.107269213495187e-05 -8.076999083741022e-05)
(0.05083936596701612 9.506999697356365e-05 -0.0001088734688269776)
(0.05614671809283429 0.00015594855995494007 -0.00014122910588515873)
(0.06133591734944786 0.00023617741009574524 -0.00017758405966499598)
(0.06640116588918994 0.0003378572410717208 -0.00021729314877799505)
(0.07133028230794611 0.00046251591850360085 -0.0002592384877463954)
(0.07611098722679296 0.0006109229984652484 -0.00030204180365765184)
(0.08073020531769828 0.0007831187137274677 -0.0003441825815283222)
(0.08517269752256634 0.0009782960401061671 -0.0003840814327982344)
(0.0894249595884958 0.0011949268866029306 -0.0004203737346267686)
(0.09347527546725572 0.0014309014409082305 -0.0004519174210250298)
(0.09731357678050448 0.0016835839808039394 -0.00047787798336633615)
(0.10093159066094495 0.0019500559091735336 -0.0004976750254213276)
(0.10432454629035501 0.0022271708105934176 -0.0005111512823027372)
(0.10748987526618145 0.002511740577539816 -0.0005183364476085824)
(0.11042780040461393 0.002800614906778676 -0.0005194633318605372)
(0.1131403753850298 0.0030907693665120643 -0.000514928180748369)
(0.11563171064861995 0.0033793624749031 -0.0005053106859375739)
(0.11790771278642445 0.003663784898287209 -0.0004912026729078465)
(0.11997622718872801 0.003941702065732536 -0.0004731950766655914)
(0.12184560410871693 0.004211018929860749 -0.00045189718412103855)
(0.12352464988070593 0.004469937316278096 -0.0004279365664075759)
(0.12502312809017035 0.00471688430540285 -0.0004018936432401322)
(0.12635206935844034 0.004950629789939831 -0.0003742653764685277)
(0.1275223222408601 0.00517010404689648 -0.0003455296533696145)
(0.12854367735132902 0.005374561963152993 -0.00031612067150511554)
(0.1294262066886764 0.005563370271330035 -0.00028644623142950353)
(0.13018069065171897 0.005736192232256566 -0.0002568056226491407)
(0.13081810528809729 0.005892786298822662 -0.00022747685433708464)
(0.1313477229798763 0.00603312619014634 -0.0001987213263416388)
(0.13177823996638466 0.006157295831772136 -0.00017079479582988668)
(0.13211893002890945 0.006265554542974923 -0.0001439063646824777)
(0.1323796369655497 0.006358329576004695 -0.000118220956654787)
(0.13256926059443166 0.006436114122284318 -9.386495835501412e-05)
(0.13269426607856744 0.006499507857801029 -7.088075887615117e-05)
(0.13276107490836334 0.006549139973448867 -4.929358910869281e-05)
(0.13277670201353572 0.006585627270965804 -2.9088050331106768e-05)
(0.13274845885767833 0.006609594931881295 -1.0231526469879847e-05)
(0.1326818768690491 0.006621616749365202 7.342749239829718e-06)
(0.13258062999802137 0.006622212614319603 2.373704778123707e-05)
(0.13244883046049885 0.006611910201026418 3.905318005551289e-05)
(0.13229194032732633 0.006591226631246349 5.3379001649558635e-05)
(0.13211564615979404 0.006560691738011783 6.679815977850505e-05)
(0.13192341502695387 0.006520828189879567 7.93469591310206e-05)
(0.13171722592820775 0.006472160467298083 9.102953492610261e-05)
(0.13149979377783957 0.006415207672264528 0.0001018478430902095)
(0.13127549512653516 0.006350450804760224 0.00011179963473005114)
(0.131048852830493 0.006278381570515968 0.00012088266936824769)
(0.13082240209613816 0.006199507786371862 0.0001290988438139353)
(0.13059755724150052 0.006114355031989072 0.00013645276768130954)
(0.13037640129091332 0.006023456057402739 0.00014297130433141408)
(0.13016243231463412 0.0059273364669167215 0.00014872866620737197)
(0.12995918498196476 0.005826533958051813 0.00015379709054891944)
(0.12976776920777525 0.005721564727324671 0.00015814379057981022)