/*--------------------------------*- C++ -*----------------------------------*\
| =========                 |                                                 |
| \\      /  F ield         | OpenFOAM: The Open Source CFD Toolbox           |
|  \\    /   O peration     | Version:  2306                                  |
|   \\  /    A nd           | Website:  www.openfoam.com                      |
|    \\/     M anipulation  |                                                 |
\*---------------------------------------------------------------------------*/
// * * * * * * * * * * * * * * * * * * * * * * * * * * * * * * * * * * * * * //
FoamFile
{
    version         2;
    format          ascii;
    class           volVectorField;
    location        "98.96";
    object          Udns;
}

dimensions      [ 0 1 -1 0 0 0 0 ];

internalField   nonuniform List<vector> 
15625
(
(0.000577804 -6.56537e-10 -6.56537e-10)
(0.00159869 4.20068e-08 -3.66515e-08)
(0.0025362 4.24283e-07 -1.82871e-07)
(0.00342543 1.61684e-06 -4.49942e-07)
(0.00428283 4.0735e-06 -8.19843e-07)
(0.00511303 8.15502e-06 -1.2561e-06)
(0.00592357 1.41483e-05 -1.75365e-06)
(0.00671446 2.23239e-05 -2.30653e-06)
(0.00748941 3.29915e-05 -2.93837e-06)
(0.00824779 4.65351e-05 -3.66127e-06)
(0.00898931 6.33943e-05 -4.48531e-06)
(0.00971425 8.40234e-05 -5.41196e-06)
(0.0104201 0.000108842 -6.41567e-06)
(0.0111054 0.000138146 -7.46567e-06)
(0.0117688 0.000172091 -8.52399e-06)
(0.0124076 0.00021065 -9.54053e-06)
(0.0130197 0.000253604 -1.04736e-05)
(0.0136037 0.000300571 -1.12895e-05)
(0.0141579 0.000351009 -1.19585e-05)
(0.0146807 0.000404285 -1.24589e-05)
(0.0151715 0.000459678 -1.27871e-05)
(0.0156298 0.000516455 -1.2944e-05)
(0.0160554 0.00057388 -1.29337e-05)
(0.0164485 0.000631252 -1.27675e-05)
(0.0168097 0.000687915 -1.24658e-05)
(0.0171397 0.000743284 -1.20471e-05)
(0.0174397 0.000796857 -1.15278e-05)
(0.0177109 0.000848197 -1.09258e-05)
(0.0179544 0.000896946 -1.02615e-05)
(0.0181716 0.000942806 -9.552e-06)
(0.0183643 0.000985575 -8.80909e-06)
(0.0185341 0.00102508 -8.04458e-06)
(0.0186823 0.00106122 -7.27094e-06)
(0.0188101 0.00109392 -6.49967e-06)
(0.0189195 0.00112317 -5.73741e-06)
(0.0190121 0.00114899 -4.98993e-06)
(0.0190892 0.00117143 -4.26365e-06)
(0.0191518 0.00119055 -3.56533e-06)
(0.0192014 0.00120646 -2.89933e-06)
(0.0192396 0.0012193 -2.26779e-06)
(0.0192678 0.00122919 -1.67251e-06)
(0.0192868 0.00123629 -1.1147e-06)
(0.0192972 0.00124075 -5.95552e-07)
(0.0193002 0.00124273 -1.16438e-07)
(0.0192972 0.00124241 3.21311e-07)
(0.0192891 0.00123997 7.19612e-07)
(0.019276 0.00123557 1.08376e-06)
(0.0192583 0.00122934 1.41934e-06)
(0.0192371 0.00122139 1.73198e-06)
(0.0192134 0.00121182 2.02713e-06)
(0.0191877 0.00120069 2.30626e-06)
(0.0191599 0.00118808 2.5681e-06)
(0.0191303 0.00117406 2.81093e-06)
(0.0190997 0.00115872 3.03223e-06)
(0.0190692 0.00114219 3.22963e-06)
(0.0190391 0.00112455 3.40404e-06)
(0.019009 0.00110593 3.55835e-06)
(0.0189792 0.0010864 3.69534e-06)
(0.0189505 0.00106606 3.8174e-06)
(0.0189237 0.00104496 3.92655e-06)
(0.0188989 0.00102318 4.0209e-06)
(0.0188757 0.00100081 4.09612e-06)
(0.0188539 0.000977954 4.14823e-06)
(0.0188342 0.000954741 4.17424e-06)
(0.0188171 0.000931328 4.17158e-06)
(0.0188026 0.000907861 4.14215e-06)
(0.01879 0.000884482 4.09098e-06)
(0.0187788 0.000861304 4.02578e-06)
(0.0187696 0.000838328 3.96163e-06)
(0.018763 0.000815535 3.91483e-06)
(0.018759 0.000792844 3.89023e-06)
(0.018757 0.000770121 3.88241e-06)
(0.0187566 0.000747251 3.88542e-06)
(0.0187585 0.000724217 3.89329e-06)
(0.0187634 0.000701026 3.89997e-06)
(0.0187715 0.000677693 3.90109e-06)
(0.0187821 0.000654245 3.89435e-06)
(0.0187947 0.000630717 3.87744e-06)
(0.0188099 0.000607198 3.84778e-06)
(0.0188285 0.000583798 3.8027e-06)
(0.0188508 0.000560598 3.74297e-06)
(0.0188762 0.000537638 3.67487e-06)
(0.0189039 0.000514958 3.60412e-06)
(0.0189343 0.000492614 3.52772e-06)
(0.0189681 0.000470673 3.43856e-06)
(0.0190056 0.000449221 3.33162e-06)
(0.0190457 0.00042838 3.20628e-06)
(0.0190875 0.000408275 3.0629e-06)
(0.0191308 0.000389007 2.90692e-06)
(0.0191762 0.000370663 2.74671e-06)
(0.0192237 0.000353274 2.59067e-06)
(0.0192724 0.000336744 2.44686e-06)
(0.0193211 0.000320962 2.3224e-06)
(0.0193699 0.000305871 2.2132e-06)
(0.0194197 0.000291443 2.10824e-06)
(0.0194706 0.000277626 2.00484e-06)
(0.0195215 0.00026431 1.91969e-06)
(0.019571 0.000251374 1.87006e-06)
(0.0196195 0.000238659 1.84932e-06)
(0.0196681 0.000225989 1.83702e-06)
(0.0197173 0.000213287 1.81846e-06)
(0.0197663 0.000200679 1.79112e-06)
(0.0198143 0.00018829 1.75537e-06)
(0.0198619 0.000176069 1.72276e-06)
(0.01991 0.000163885 1.70972e-06)
(0.0199592 0.000151688 1.71286e-06)
(0.0200087 0.000139545 1.70061e-06)
(0.020058 0.000127558 1.64679e-06)
(0.0201073 0.000115944 1.56196e-06)
(0.0201569 0.000104947 1.4668e-06)
(0.0202063 9.46349e-05 1.37204e-06)
(0.0202542 8.49276e-05 1.28005e-06)
(0.0202997 7.57782e-05 1.1912e-06)
(0.0203429 6.72252e-05 1.10205e-06)
(0.020384 5.93191e-05 1.00935e-06)
(0.0204219 5.21058e-05 9.14988e-07)
(0.0204551 4.56205e-05 8.23029e-07)
(0.0204836 3.97067e-05 7.40049e-07)
(0.0205088 3.40308e-05 6.74997e-07)
(0.0205309 2.86137e-05 6.35749e-07)
(0.020549 2.42214e-05 6.27551e-07)
(0.020562 2.09066e-05 6.51302e-07)
(0.0205706 1.5068e-05 6.89474e-07)
(0.0205764 1.97253e-06 7.18839e-07)
(0.0205808 -2.32719e-05 7.15382e-07)
(0.00159869 -3.66515e-08 4.20068e-08)
(0.00457967 -1.78563e-07 -1.78563e-07)
(0.00736938 3.24429e-07 -1.25736e-06)
(0.0100299 2.6442e-06 -3.30313e-06)
(0.0125978 7.97115e-06 -6.20446e-06)
(0.0150895 1.73742e-05 -9.77796e-06)
(0.0175211 3.18294e-05 -1.39666e-05)
(0.0198967 5.23024e-05 -1.87688e-05)
(0.0222236 7.98469e-05 -2.43012e-05)
(0.0245014 0.000115619 -3.06412e-05)
(0.0267294 0.000160835 -3.78213e-05)
(0.0289066 0.000216665 -4.57888e-05)
(0.0310271 0.000284098 -5.43415e-05)
(0.0330861 0.000363792 -6.32096e-05)
(0.0350784 0.000456032 -7.20701e-05)
(0.0369968 0.000560614 -8.05466e-05)
(0.0388352 0.000676885 -8.83113e-05)
(0.0405886 0.000803808 -9.50879e-05)
(0.0422521 0.000939946 -0.000100657)
(0.0438214 0.00108365 -0.000104861)
(0.0452943 0.00123309 -0.000107659)
(0.0466694 0.00138637 -0.000109052)
(0.0479463 0.00154161 -0.000109084)
(0.0491256 0.00169699 -0.000107847)
(0.050209 0.00185084 -0.000105487)
(0.0511988 0.00200161 -0.000102147)
(0.0520984 0.00214796 -9.79664e-05)
(0.0529115 0.00228871 -9.30889e-05)
(0.0536416 0.0024229 -8.76683e-05)
(0.054293 0.00254969 -8.18407e-05)
(0.0548707 0.00266848 -7.57119e-05)
(0.0553794 0.00277876 -6.93851e-05)
(0.0558234 0.00288021 -6.29592e-05)
(0.0562068 0.0029726 -5.65263e-05)
(0.0565345 0.00305584 -5.01469e-05)
(0.0568118 0.00312992 -4.38753e-05)
(0.0570424 0.00319493 -3.77656e-05)
(0.05723 0.00325103 -3.18719e-05)
(0.0573786 0.00329845 -2.62336e-05)
(0.0574928 0.00333751 -2.08758e-05)
(0.0575767 0.00336856 -1.58185e-05)
(0.0576329 0.00339198 -1.10701e-05)
(0.0576638 0.00340816 -6.63729e-06)
(0.0576727 0.00341752 -2.52568e-06)
(0.0576633 0.00342049 1.26052e-06)
(0.0576379 0.00341747 4.73621e-06)
(0.0575978 0.00340884 7.93622e-06)
(0.0575445 0.00339499 1.08973e-05)
(0.0574805 0.00337619 1.36566e-05)
(0.0574088 0.0033527 1.62505e-05)
(0.0573307 0.00332477 1.86899e-05)
(0.0572466 0.00329263 2.09682e-05)
(0.0571573 0.00325653 2.30772e-05)
(0.0570653 0.00321672 2.50052e-05)
(0.056973 0.00317346 2.67418e-05)
(0.0568814 0.00312705 2.82915e-05)
(0.0567904 0.00307776 2.96681e-05)
(0.0567007 0.00302586 3.08874e-05)
(0.0566142 0.00297158 3.19687e-05)
(0.056533 0.00291513 3.29293e-05)
(0.0564575 0.00285675 3.37557e-05)
(0.056387 0.00279669 3.44162e-05)
(0.0563214 0.00273524 3.48832e-05)
(0.0562619 0.00267273 3.51418e-05)
(0.0562098 0.00260952 3.51806e-05)
(0.0561649 0.00254597 3.50165e-05)
(0.0561259 0.00248239 3.46863e-05)
(0.0560919 0.00241905 3.42448e-05)
(0.0560639 0.00235598 3.37984e-05)
(0.0560432 0.00229318 3.34617e-05)
(0.0560297 0.00223051 3.32744e-05)
(0.0560226 0.0021677 3.32082e-05)
(0.056021 0.00210453 3.32289e-05)
(0.0560264 0.00204093 3.32895e-05)
(0.0560404 0.00197688 3.33391e-05)
(0.0560633 0.00191244 3.33389e-05)
(0.056094 0.00184773 3.32653e-05)
(0.0561314 0.0017829 3.30974e-05)
(0.0561767 0.00171813 3.28289e-05)
(0.0562319 0.00165364 3.2459e-05)
(0.0562977 0.0015896 3.19976e-05)
(0.0563726 0.0015261 3.14717e-05)
(0.0564553 0.00146325 3.09039e-05)
(0.0565463 0.00140122 3.02714e-05)
(0.0566473 0.0013402 2.95292e-05)
(0.0567585 0.00128044 2.86429e-05)
(0.0568777 0.0012223 2.75992e-05)
(0.0570023 0.00116615 2.63937e-05)
(0.0571321 0.00111222 2.50797e-05)
(0.0572678 0.00106071 2.37444e-05)
(0.0574092 0.00101169 2.24637e-05)
(0.0575539 0.000964905 2.12843e-05)
(0.0576996 0.000920083 2.02441e-05)
(0.0578462 0.000877069 1.93191e-05)
(0.0579953 0.000835783 1.84471e-05)
(0.058147 0.000796072 1.76168e-05)
(0.0582987 0.000757634 1.69354e-05)
(0.0584473 0.000720135 1.65123e-05)
(0.0585934 0.000683239 1.62974e-05)
(0.0587393 0.000646602 1.61486e-05)
(0.0588862 0.000610063 1.59637e-05)
(0.0590325 0.000573818 1.57251e-05)
(0.0591766 0.000538075 1.54329e-05)
(0.0593195 0.000502792 1.51498e-05)
(0.0594638 0.000467816 1.49652e-05)
(0.0596104 0.000433143 1.48533e-05)
(0.0597582 0.000398986 1.46241e-05)
(0.0599063 0.000365603 1.41218e-05)
(0.0600545 0.000333373 1.34165e-05)
(0.060203 0.000302698 1.26407e-05)
(0.0603502 0.000273709 1.18635e-05)
(0.0604933 0.000246314 1.1101e-05)
(0.0606304 0.00022046 1.0355e-05)
(0.0607606 0.000196215 9.59941e-06)
(0.0608833 0.000173675 8.81055e-06)
(0.060996 0.000153017 8.00715e-06)
(0.0610955 0.000134419 7.22607e-06)
(0.0611817 0.000117403 6.529e-06)
(0.0612572 0.000100886 6.00083e-06)
(0.0613231 8.48694e-05 5.70492e-06)
(0.0613766 7.16344e-05 5.65661e-06)
(0.0614156 6.14786e-05 5.84085e-06)
(0.0614423 4.44019e-05 6.13209e-06)
(0.0614602 7.218e-06 6.37013e-06)
(0.0614728 -6.37018e-05 6.38929e-06)
(0.0025362 -1.82871e-07 4.24283e-07)
(0.00736938 -1.25736e-06 3.24429e-07)
(0.0119606 -2.00971e-06 -2.00971e-06)
(0.0163683 -6.3981e-07 -6.82411e-06)
(0.0206348 4.67601e-06 -1.39038e-05)
(0.0247827 1.56813e-05 -2.29465e-05)
(0.0288332 3.40846e-05 -3.384e-05)
(0.0327935 6.16358e-05 -4.66307e-05)
(0.0366725 0.000100192 -6.15123e-05)
(0.0404704 0.000151678 -7.86052e-05)
(0.0441853 0.000217986 -9.78749e-05)
(0.0478141 0.00030082 -0.000119063)
(0.0513478 0.000401517 -0.000141616)
(0.0547778 0.000520861 -0.000164806)
(0.0580952 0.00065907 -0.000187795)
(0.0612883 0.000815666 -0.000209679)
(0.0643472 0.000989553 -0.000229662)
(0.0672633 0.00117912 -0.000247066)
(0.0700287 0.00138225 -0.000261384)
(0.0726369 0.00159654 -0.000272258)
(0.0750842 0.00181937 -0.000279582)
(0.0773682 0.00204806 -0.00028336)
(0.0794888 0.00227993 -0.000283718)
(0.0814471 0.00251241 -0.000280882)
(0.0832459 0.00274311 -0.000275193)
(0.0848892 0.00296983 -0.000266997)
(0.0863827 0.00319061 -0.000256639)
(0.0877324 0.00340373 -0.000244474)
(0.0889445 0.00360774 -0.000230869)
(0.0900259 0.00380138 -0.000216158)
(0.0909849 0.00398369 -0.000200619)
(0.0918294 0.00415386 -0.000184522)
(0.0925662 0.00431136 -0.000168111)
(0.0932027 0.00445575 -0.000151616)
(0.0937468 0.00458684 -0.0001352)
(0.0942067 0.00470452 -0.000119014)
(0.094589 0.00480886 -0.000103198)
(0.0948999 0.00490002 -8.78909e-05)
(0.0951462 0.00497828 -7.31997e-05)
(0.0953351 0.00504405 -5.92059e-05)
(0.0954732 0.0050978 -4.59712e-05)
(0.0955651 0.00514006 -3.35155e-05)
(0.0956152 0.00517139 -2.18519e-05)
(0.0956287 0.00519235 -1.09826e-05)
(0.0956112 0.00520349 -9.03952e-07)
(0.0955667 0.00520537 8.42086e-06)
(0.0954977 0.00519847 1.70635e-05)
(0.0954068 0.00518331 2.5098e-05)
(0.0952981 0.00516029 3.25955e-05)
(0.095176 0.00512984 3.9625e-05)
(0.095043 0.00509235 4.6211e-05)
(0.0949 0.00504823 5.23473e-05)
(0.0947488 0.00499787 5.80256e-05)
(0.094593 0.00494165 6.32329e-05)
(0.0944361 0.00487997 6.79573e-05)
(0.0942799 0.00481322 7.2205e-05)
(0.0941249 0.00474185 7.59927e-05)
(0.0939724 0.00466625 7.93468e-05)
(0.0938253 0.00458682 8.23129e-05)
(0.0936865 0.00450391 8.49336e-05)
(0.0935567 0.00441793 8.71824e-05)
(0.0934353 0.00432927 8.89907e-05)
(0.0933224 0.00423834 9.03039e-05)
(0.0932194 0.00414563 9.1105e-05)
(0.0931282 0.00405161 9.13864e-05)
(0.0930483 0.00395672 9.11915e-05)
(0.0929781 0.00386137 9.06002e-05)
(0.0929167 0.00376588 8.97319e-05)
(0.0928654 0.00367037 8.88157e-05)
(0.0928258 0.00357493 8.81e-05)
(0.0927979 0.00347944 8.76841e-05)
(0.0927808 0.00338362 8.75329e-05)
(0.0927738 0.00328722 8.75912e-05)
(0.0927785 0.00319017 8.77438e-05)
(0.092797 0.00309245 8.78586e-05)
(0.09283 0.00299413 8.78363e-05)
(0.0928759 0.00289543 8.76177e-05)
(0.0929337 0.00279656 8.71541e-05)
(0.0930049 0.00269776 8.64494e-05)
(0.0930923 0.0025993 8.55264e-05)
(0.0931969 0.00250136 8.44136e-05)
(0.0933167 0.00240409 8.3147e-05)
(0.09345 0.00230762 8.17526e-05)
(0.0935974 0.00221223 8.01658e-05)
(0.0937608 0.00211822 7.8279e-05)
(0.0939402 0.00202601 7.60092e-05)
(0.0941327 0.00193613 7.33253e-05)
(0.0943352 0.00184915 7.02179e-05)
(0.0945468 0.00176539 6.68363e-05)
(0.0947678 0.00168511 6.34212e-05)
(0.0949975 0.00160836 6.01711e-05)
(0.095233 0.00153482 5.71783e-05)
(0.0954712 0.0014641 5.45119e-05)
(0.0957117 0.00139598 5.21252e-05)
(0.0959562 0.0013303 4.99004e-05)
(0.0962047 0.00126686 4.78218e-05)
(0.0964535 0.00120522 4.61099e-05)
(0.096699 0.00114496 4.4988e-05)
(0.0969414 0.00108565 4.43391e-05)
(0.0971832 0.0010269 4.38492e-05)
(0.0974254 0.000968515 4.3294e-05)
(0.0976663 0.000910644 4.26375e-05)
(0.097904 0.000853483 4.18768e-05)
(0.0981401 0.000797085 4.10994e-05)
(0.0983781 0.000741446 4.0431e-05)
(0.0986193 0.000686718 3.98103e-05)
(0.0988625 0.000633272 3.89098e-05)
(0.0991066 0.000581487 3.7467e-05)
(0.0993511 0.000531651 3.56324e-05)
(0.0995954 0.000484025 3.36692e-05)
(0.0998376 0.000438731 3.17046e-05)
(0.100074 0.000395775 2.97516e-05)
(0.100301 0.000355186 2.78015e-05)
(0.100516 0.000317049 2.58053e-05)
(0.100718 0.000281484 2.37238e-05)
(0.100903 0.000248769 2.16173e-05)
(0.101067 0.000219192 1.95892e-05)
(0.10121 0.00019195 1.78055e-05)
(0.101335 0.000165232 1.64907e-05)
(0.101443 0.000139006 1.5795e-05)
(0.10153 0.000116989 1.57066e-05)
(0.101595 9.98334e-05 1.61484e-05)
(0.101641 7.21434e-05 1.68403e-05)
(0.101671 1.35641e-05 1.74375e-05)
(0.101692 -9.69432e-05 1.75836e-05)
(0.00342543 -4.49942e-07 1.61684e-06)
(0.0100299 -3.30313e-06 2.6442e-06)
(0.0163683 -6.82411e-06 -6.3981e-07)
(0.0224894 -8.54104e-06 -8.54104e-06)
(0.0284331 -6.0201e-06 -2.0753e-05)
(0.0342231 3.11988e-06 -3.68904e-05)
(0.0398817 2.13057e-05 -5.68608e-05)
(0.0454174 5.10727e-05 -8.077e-05)
(0.0508394 9.507e-05 -0.000108873)
(0.0561467 0.000155949 -0.000141229)
(0.0613359 0.000236177 -0.000177584)
(0.0664012 0.000337857 -0.000217293)
(0.0713303 0.000462516 -0.000259238)
(0.076111 0.000610923 -0.000302042)
(0.0807302 0.000783119 -0.000344183)
(0.0851727 0.000978296 -0.000384081)
(0.089425 0.00119493 -0.000420374)
(0.0934753 0.0014309 -0.000451917)
(0.0973136 0.00168358 -0.000477878)
(0.100932 0.00195006 -0.000497675)
(0.104325 0.00222717 -0.000511151)
(0.10749 0.00251174 -0.000518336)
(0.110428 0.00280061 -0.000519463)
(0.11314 0.00309077 -0.000514928)
(0.115632 0.00337936 -0.000505311)
(0.117908 0.00366378 -0.000491203)
(0.119976 0.0039417 -0.000473195)
(0.121846 0.00421102 -0.000451897)
(0.123525 0.00446994 -0.000427937)
(0.125023 0.00471688 -0.000401894)
(0.126352 0.00495063 -0.000374265)
(0.127522 0.0051701 -0.00034553)
(0.128544 0.00537456 -0.000316121)
(0.129426 0.00556337 -0.000286446)
(0.130181 0.00573619 -0.000256806)
(0.130818 0.00589279 -0.000227477)
(0.131348 0.00603313 -0.000198721)
(0.131778 0.0061573 -0.000170795)
(0.132119 0.00626555 -0.000143906)
(0.13238 0.00635833 -0.000118221)
(0.132569 0.00643611 -9.3865e-05)
(0.132694 0.00649951 -7.08808e-05)
(0.132761 0.00654914 -4.92936e-05)
(0.132777 0.00658563 -2.90881e-05)
(0.132748 0.00660959 -1.02315e-05)
(0.132682 0.00662162 7.34275e-06)
(0.132581 0.00662221 2.3737e-05)
(0.132449 0.00661191 3.90532e-05)
(0.132292 0.00659123 5.3379e-05)
(0.132116 0.00656069 6.67982e-05)
(0.131923 0.00652083 7.9347e-05)
(0.131717 0.00647216 9.10295e-05)
(0.1315 0.00641521 0.000101848)
(0.131275 0.00635045 0.0001118)
(0.131049 0.00627838 0.000120883)
(0.130822 0.00619951 0.000129099)
(0.130598 0.00611436 0.000136453)
(0.130376 0.00602346 0.000142971)
(0.130162 0.00592734 0.000148729)
(0.129959 0.00582653 0.000153797)
(0.129768 0.00572156 0.000158144)
(0.129588 0.00561294 0.000161673)
(0.12942 0.00550118 0.000164314)
(0.129265 0.00538683 0.000166071)
(0.129125 0.00527042 0.000166961)
(0.129001 0.00515241 0.000167058)
(0.128889 0.00503323 0.000166479)
(0.12879 0.00491324 0.0001654)
(0.128705 0.00479268 0.000164173)
(0.128636 0.00467174 0.000163177)
(0.128584 0.00455039 0.000162586)
(0.128547 0.0044284 0.000162389)
(0.128524 0.00430558 0.00016253)
(0.128518 0.00418189 0.000162816)
(0.128531 0.00405733 0.000163014)
(0.128563 0.00393201 0.000162956)
(0.128614 0.00380614 0.00016255)
(0.128681 0.00367995 0.000161725)
(0.128768 0.00355371 0.000160495)
(0.128877 0.00342771 0.000158908)
(0.129009 0.00330219 0.000157008)
(0.129163 0.00317731 0.000154841)
(0.129336 0.00305323 0.00015243)
(0.129529 0.00293031 0.000149645)
(0.129743 0.002809 0.00014628)
(0.129979 0.00268981 0.000142187)
(0.130232 0.00257338 0.000137337)
(0.1305 0.00246039 0.000131741)
(0.130782 0.00235122 0.000125674)
(0.131076 0.00224613 0.000119558)
(0.131382 0.0021452 0.000113743)
(0.131696 0.00204805 0.000108384)
(0.132016 0.00195426 0.000103595)
(0.13234 0.00186355 9.93039e-05)
(0.13267 0.00177571 9.53202e-05)
(0.133006 0.00169049 9.16137e-05)
(0.133344 0.00160748 8.85235e-05)
(0.133679 0.00152625 8.63935e-05)
(0.134012 0.00144638 8.50373e-05)
(0.134343 0.00136743 8.39618e-05)
(0.134675 0.00128914 8.28124e-05)
(0.135004 0.00121164 8.15262e-05)
(0.135328 0.00113507 8.00829e-05)
(0.135651 0.00105962 7.85385e-05)
(0.135976 0.000985499 7.69805e-05)
(0.136305 0.000913031 7.53116e-05)
(0.136637 0.000842702 7.31722e-05)
(0.136969 0.00077495 7.02885e-05)
(0.137302 0.000709888 6.68936e-05)
(0.137636 0.000647544 6.33571e-05)
(0.137966 0.000588008 5.98281e-05)
(0.138289 0.000531422 5.62701e-05)
(0.1386 0.00047792 5.26398e-05)
(0.138895 0.000427606 4.88932e-05)
(0.139171 0.00038061 4.50102e-05)
(0.139423 0.000337243 4.11255e-05)
(0.139647 0.000297816 3.74413e-05)
(0.139842 0.000261211 3.42562e-05)
(0.140013 0.000224985 3.1958e-05)
(0.140159 0.000189111 3.07856e-05)
(0.140278 0.000158638 3.06564e-05)
(0.140368 0.000134634 3.13882e-05)
(0.140432 9.71825e-05 3.2537e-05)
(0.140475 1.98842e-05 3.35734e-05)
(0.140504 -0.000124546 3.39497e-05)
(0.00428283 -8.19843e-07 4.0735e-06)
(0.0125978 -6.20446e-06 7.97115e-06)
(0.0206348 -1.39038e-05 4.67601e-06)
(0.0284331 -2.0753e-05 -6.0201e-06)
(0.0360271 -2.37058e-05 -2.37058e-05)
(0.0434377 -1.97441e-05 -4.79407e-05)
(0.0506855 -5.74234e-06 -7.87366e-05)
(0.0577776 2.15799e-05 -0.000116257)
(0.0647215 6.5603e-05 -0.000160788)
(0.0715142 0.000129623 -0.000212186)
(0.0781495 0.000216595 -0.000269799)
(0.0846184 0.000328914 -0.0003324)
(0.0909053 0.000468195 -0.000398087)
(0.0969942 0.000635097 -0.000464666)
(0.102869 0.000829422 -0.000529812)
(0.10851 0.00105003 -0.000591175)
(0.113903 0.00129504 -0.000646781)
(0.119032 0.00156196 -0.000695021)
(0.123888 0.00184781 -0.000734736)
(0.12846 0.00214932 -0.000765141)
(0.132744 0.00246306 -0.000786062)
(0.136738 0.00278558 -0.000797589)
(0.140443 0.00311348 -0.000800083)
(0.143862 0.00344354 -0.000794132)
(0.147002 0.0037727 -0.00078058)
(0.14987 0.00409815 -0.000760282)
(0.152477 0.00441737 -0.00073408)
(0.154833 0.00472803 -0.000702853)
(0.156949 0.00502815 -0.000667509)
(0.158839 0.00531592 -0.000628895)
(0.160515 0.00558993 -0.000587744)
(0.161991 0.0058489 -0.000544762)
(0.163281 0.00609189 -0.000500593)
(0.164395 0.00631809 -0.000455844)
(0.165348 0.00652698 -0.000410968)
(0.166153 0.00671815 -0.000366389)
(0.166822 0.00689142 -0.000322514)
(0.167365 0.00704675 -0.000279751)
(0.167795 0.0071843 -0.000238435)
(0.168123 0.00730444 -0.000198837)
(0.16836 0.0074076 -0.000161166)
(0.168514 0.00749435 -0.000125506)
(0.168595 0.00756532 -9.19062e-05)
(0.168609 0.0076211 -6.03205e-05)
(0.168567 0.00766231 -3.06637e-05)
(0.168475 0.00768948 -2.83313e-06)
(0.168339 0.00770309 2.32923e-05)
(0.168163 0.00770362 4.78259e-05)
(0.167954 0.00769165 7.08458e-05)
(0.167719 0.00766773 9.24229e-05)
(0.167464 0.00763245 0.000112597)
(0.16719 0.00758644 0.000131389)
(0.166901 0.0075303 0.000148817)
(0.166603 0.00746456 0.000164899)
(0.1663 0.00738981 0.000179651)
(0.165997 0.00730663 0.000193064)
(0.165695 0.00721562 0.000205113)
(0.165398 0.00711742 0.000215815)
(0.165108 0.00701268 0.000225268)
(0.164832 0.00690209 0.000233576)
(0.164569 0.00678626 0.000240716)
(0.16432 0.00666578 0.000246588)
(0.164085 0.00654123 0.000251135)
(0.163866 0.00641314 0.000254395)
(0.163666 0.00628205 0.000256427)
(0.163483 0.00614844 0.000257332)
(0.163316 0.00601275 0.000257243)
(0.163166 0.00587539 0.000256375)
(0.163033 0.00573668 0.000255185)
(0.16292 0.00559696 0.00025417)
(0.162828 0.0054563 0.000253587)
(0.162756 0.00531459 0.000253465)
(0.162703 0.00517175 0.000253773)
(0.162672 0.00502778 0.000254253)
(0.162664 0.00488273 0.000254582)
(0.162681 0.0047367 0.000254532)
(0.162721 0.00458984 0.000253987)
(0.162782 0.00444236 0.000252851)
(0.162868 0.00429454 0.000251138)
(0.162982 0.00414672 0.000248896)
(0.163126 0.00399919 0.00024618)
(0.163298 0.00385214 0.000243048)
(0.163494 0.00370582 0.000239527)
(0.163715 0.00356065 0.000235406)
(0.163962 0.00341716 0.000230354)
(0.164236 0.00327594 0.000224156)
(0.164532 0.00313765 0.000216817)
(0.164847 0.00300297 0.000208406)
(0.165179 0.00287232 0.000199323)
(0.165528 0.00274594 0.000190163)
(0.165892 0.00262392 0.000181423)
(0.166268 0.00250591 0.000173349)
(0.166652 0.00239152 0.000166134)
(0.167043 0.00228045 0.000159668)
(0.167444 0.00217248 0.000153658)
(0.167853 0.00206733 0.000148038)
(0.168266 0.00196472 0.000143263)
(0.16868 0.00186433 0.000139803)
(0.169092 0.00176575 0.000137422)
(0.169502 0.00166851 0.000135478)
(0.169911 0.00157231 0.000133497)
(0.170317 0.0014772 0.000131359)
(0.170718 0.0013833 0.000128988)
(0.171117 0.00129093 0.00012636)
(0.171518 0.00120051 0.00012347)
(0.171924 0.00111248 0.0001202)
(0.172332 0.00102736 0.00011627)
(0.172741 0.000945575 0.000111492)
(0.173152 0.000867104 0.000106168)
(0.173562 0.0007918 0.000100727)
(0.173971 0.000719755 9.52993e-05)
(0.17437 0.000651259 8.97585e-05)
(0.174756 0.000586542 8.40119e-05)
(0.175121 0.00052568 7.80607e-05)
(0.175461 0.000468763 7.19507e-05)
(0.175771 0.00041607 6.59229e-05)
(0.176047 0.000367874 6.03043e-05)
(0.176288 0.000322773 5.5531e-05)
(0.176498 0.000277817 5.214e-05)
(0.176678 0.000233041 5.0436e-05)
(0.176825 0.000194754 5.02277e-05)
(0.176938 0.000164484 5.11976e-05)
(0.177019 0.000118454 5.27551e-05)
(0.177074 2.50756e-05 5.42171e-05)
(0.177109 -0.000148299 5.4877e-05)
(0.00511303 -1.2561e-06 8.15502e-06)
(0.0150895 -9.77796e-06 1.73742e-05)
(0.0247827 -2.29465e-05 1.56813e-05)
(0.0342231 -3.68904e-05 3.11988e-06)
(0.0434377 -4.79407e-05 -1.97441e-05)
(0.052442 -5.24555e-05 -5.24555e-05)
(0.0612523 -4.66363e-05 -9.51702e-05)
(0.0698721 -2.64937e-05 -0.000148121)
(0.0783052 1.20319e-05 -0.000211548)
(0.0865454 7.28017e-05 -0.000284963)
(0.0945828 0.000159163 -0.000367124)
(0.102405 0.000273717 -0.000456015)
(0.109992 0.000418093 -0.000548773)
(0.117325 0.000592828 -0.000642251)
(0.124386 0.000797513 -0.00073322)
(0.131152 0.00103074 -0.000818529)
(0.137607 0.00129034 -0.000895588)
(0.143736 0.00157357 -0.000962343)
(0.149528 0.00187726 -0.00101736)
(0.154973 0.002198 -0.00105968)
(0.160069 0.00253226 -0.00108918)
(0.164814 0.00287653 -0.00110601)
(0.169212 0.00322739 -0.00111069)
(0.173268 0.00358156 -0.00110403)
(0.176991 0.00393598 -0.00108711)
(0.180391 0.00428778 -0.00106106)
(0.18348 0.00463436 -0.00102697)
(0.186272 0.00497332 -0.000985963)
(0.188781 0.00530256 -0.000939237)
(0.191021 0.00562017 -0.000887896)
(0.19301 0.00592457 -0.000832909)
(0.194762 0.00621434 -0.000775215)
(0.196292 0.00648838 -0.000715664)
(0.197616 0.00674569 -0.000655064)
(0.198749 0.00698557 -0.000594027)
(0.199706 0.00720742 -0.000533134)
(0.200501 0.00741088 -0.000472957)
(0.201147 0.00759575 -0.000414073)
(0.201657 0.00776203 -0.000356963)
(0.202045 0.00790995 -0.000302019)
(0.202325 0.0080398 -0.000249556)
(0.202505 0.00815206 -0.000199709)
(0.202595 0.00824725 -0.000152568)
(0.202607 0.00832588 -0.000108049)
(0.202549 0.00838846 -6.60023e-05)
(0.20243 0.00843544 -2.629e-05)
(0.202256 0.0084672 1.12168e-05)
(0.202035 0.00848417 4.66266e-05)
(0.201773 0.00848686 7.99771e-05)
(0.201478 0.00847583 0.000111294)
(0.201157 0.00845171 0.00014061)
(0.200813 0.00841513 0.00016796)
(0.20045 0.00836676 0.000193383)
(0.200074 0.00830719 0.000216918)
(0.199691 0.00823703 0.000238597)
(0.199306 0.00815692 0.000258395)
(0.198921 0.00806754 0.00027625)
(0.198541 0.00796958 0.000292157)
(0.198169 0.00786381 0.000306237)
(0.19781 0.00775099 0.000318618)
(0.197467 0.00763178 0.000329309)
(0.197138 0.00750685 0.000338245)
(0.196826 0.00737678 0.000345403)
(0.196532 0.0072421 0.000350865)
(0.196257 0.00710332 0.000354731)
(0.196002 0.00696092 0.000357119)
(0.195766 0.00681539 0.000358158)
(0.195549 0.00666717 0.000358085)
(0.195353 0.0065167 0.000357436)
(0.195181 0.00636439 0.000356807)
(0.195035 0.00621046 0.00035653)
(0.194912 0.00605499 0.000356693)
(0.194813 0.00589803 0.000357307)
(0.19474 0.00573963 0.000358086)
(0.194695 0.00557985 0.00035866)
(0.194679 0.00541875 0.000358762)
(0.194691 0.00525643 0.000358243)
(0.194729 0.00509303 0.000356976)
(0.194796 0.00492885 0.000354946)
(0.194897 0.00476427 0.000352176)
(0.195033 0.00459964 0.000348711)
(0.195202 0.00443526 0.000344631)
(0.195402 0.00427147 0.000339977)
(0.195631 0.00410874 0.000334458)
(0.195891 0.00394763 0.000327625)
(0.196182 0.00378872 0.000319199)
(0.196499 0.00363267 0.000309249)
(0.196839 0.00348014 0.000297925)
(0.1972 0.0033315 0.000285748)
(0.197582 0.00318694 0.000273454)
(0.197984 0.00304656 0.000261669)
(0.1984 0.0029101 0.000250739)
(0.198828 0.00277728 0.000240941)
(0.199267 0.00264786 0.00023213)
(0.199719 0.00252162 0.000223904)
(0.200184 0.00239837 0.000216149)
(0.200657 0.00227795 0.000209417)
(0.201132 0.00216019 0.000204282)
(0.201608 0.00204474 0.000200501)
(0.202082 0.00193112 0.000197354)
(0.202554 0.00181903 0.000194279)
(0.203022 0.00170843 0.000191048)
(0.203485 0.00159937 0.000187474)
(0.203946 0.00149224 0.000183423)
(0.20441 0.00138761 0.000178781)
(0.204878 0.00128602 0.000173433)
(0.205349 0.00118793 0.000167257)
(0.205821 0.00109372 0.000160214)
(0.206294 0.0010033 0.000152646)
(0.206769 0.000916494 0.000144986)
(0.207241 0.000833429 0.000137313)
(0.207705 0.000754532 0.000129403)
(0.208151 0.000680108 0.000121121)
(0.208574 0.000610152 0.000112561)
(0.208967 0.000544653 0.000103882)
(0.209324 0.000483811 9.54501e-05)
(0.209642 0.000427821 8.77216e-05)
(0.20992 0.000375045 8.12537e-05)
(0.210161 0.000322163 7.66966e-05)
(0.210369 0.000269352 7.43859e-05)
(0.21054 0.00022413 7.39912e-05)
(0.210672 0.000188512 7.50425e-05)
(0.210769 0.000135295 7.68417e-05)
(0.210834 2.82618e-05 7.86083e-05)
(0.210873 -0.00017002 7.95349e-05)
(0.00592357 -1.75365e-06 1.41483e-05)
(0.0175211 -1.39666e-05 3.18294e-05)
(0.0288332 -3.384e-05 3.40846e-05)
(0.0398817 -5.68608e-05 2.13057e-05)
(0.0506855 -7.87366e-05 -5.74234e-06)
(0.0612523 -9.51702e-05 -4.66363e-05)
(0.0715918 -0.00010168 -0.00010168)
(0.0817018 -9.35905e-05 -0.000171178)
(0.0915809 -6.62204e-05 -0.000255206)
(0.101218 -1.52081e-05 -0.000352793)
(0.110599 6.31263e-05 -0.000461917)
(0.119708 0.000171544 -0.000579569)
(0.128521 0.000311673 -0.00070179)
(0.137017 0.000483928 -0.000824369)
(0.145175 0.000687722 -0.000943113)
(0.152973 0.000921456 -0.00105408)
(0.160394 0.00118283 -0.0011541)
(0.167423 0.001469 -0.00124069)
(0.17405 0.00177676 -0.00131221)
(0.180269 0.0021027 -0.00136762)
(0.186078 0.00244336 -0.00140681)
(0.191479 0.00279532 -0.00143006)
(0.196479 0.00315525 -0.00143806)
(0.201085 0.00351999 -0.00143182)
(0.205309 0.00388654 -0.00141267)
(0.209163 0.00425213 -0.00138195)
(0.212665 0.00461415 -0.00134101)
(0.215829 0.00497024 -0.00129122)
(0.218671 0.00531824 -0.001234)
(0.22121 0.0056562 -0.0011707)
(0.223464 0.00598244 -0.00110254)
(0.225451 0.00629542 -0.00103065)
(0.227188 0.00659391 -0.000956095)
(0.228691 0.00687677 -0.00087985)
(0.229978 0.00714311 -0.000802692)
(0.231065 0.00739211 -0.000725363)
(0.231969 0.00762325 -0.000648605)
(0.232704 0.00783611 -0.000573167)
(0.233284 0.00803052 -0.000499683)
(0.233725 0.00820646 -0.000428684)
(0.23404 0.00836403 -0.000360597)
(0.234242 0.00850356 -0.000295628)
(0.234341 0.00862536 -0.000233916)
(0.234348 0.00872981 -0.000175349)
(0.234274 0.00881726 -0.000119719)
(0.234129 0.00888802 -6.686e-05)
(0.233919 0.00894239 -1.66466e-05)
(0.233654 0.00898067 3.10101e-05)
(0.233341 0.00900332 7.60825e-05)
(0.232989 0.00901082 0.000118524)
(0.232604 0.00900377 0.000158344)
(0.232191 0.0089828 0.000195586)
(0.231754 0.00894856 0.000230301)
(0.231301 0.00890168 0.000262539)
(0.230838 0.00884278 0.000292345)
(0.23037 0.00877255 0.000319674)
(0.229901 0.00869169 0.000344427)
(0.229435 0.00860095 0.000366577)
(0.228977 0.0085011 0.00038626)
(0.228531 0.00839294 0.000403628)
(0.228101 0.00827719 0.000418737)
(0.227686 0.00815448 0.000431585)
(0.227289 0.00802545 0.000442206)
(0.22691 0.00789059 0.000450716)
(0.226551 0.0077504 0.000457245)
(0.226214 0.00760538 0.000461916)
(0.225898 0.00745605 0.000464849)
(0.225602 0.00730294 0.000466283)
(0.225331 0.00714653 0.00046681)
(0.225088 0.00698732 0.000467092)
(0.224873 0.00682569 0.000467526)
(0.224687 0.00666193 0.00046827)
(0.224528 0.00649627 0.000469395)
(0.224399 0.00632879 0.000470645)
(0.224302 0.00615951 0.00047167)
(0.224237 0.00598844 0.000472188)
(0.224204 0.00581561 0.000471994)
(0.224202 0.00564107 0.000470902)
(0.224233 0.00546517 0.000468838)
(0.224304 0.00528835 0.000465766)
(0.224414 0.00511103 0.000461707)
(0.224562 0.00493364 0.000456772)
(0.224745 0.00475663 0.000451027)