/*--------------------------------*- C++ -*----------------------------------*\
| =========                 |                                                 |
| \\      /  F ield         | OpenFOAM: The Open Source CFD Toolbox           |
|  \\    /   O peration     | Version:  2306                                  |
|   \\  /    A nd           | Website:  www.openfoam.com                      |
|    \\/     M anipulation  |                                                 |
\*---------------------------------------------------------------------------*/
// * * * * * * * * * * * * * * * * * * * * * * * * * * * * * * * * * * * * * //
FoamFile
{
    version         2;
    format          ascii;
    class           volVectorField;
    location        "98.96";
    object          Urans;
}

dimensions      [ 0 1 -1 0 0 0 0 ];

internalField   nonuniform List<vector> 
15625
(
(0.00119249 -8.94799e-16 -8.94621e-16)
(0.00303802 -1.23034e-15 -5.10081e-16)
(0.00473403 -7.06109e-16 -1.63153e-16)
(0.00633819 -3.70123e-16 -7.09082e-17)
(0.00786369 -2.31358e-16 -3.76444e-17)
(0.00930836 -1.56197e-16 -1.90302e-17)
(0.0106677 -1.10532e-16 -9.58785e-18)
(0.0119399 -8.23736e-17 -5.28487e-18)
(0.0131269 -6.40983e-17 -3.1604e-18)
(0.0142335 -5.13678e-17 -2.03423e-18)
(0.0152658 -4.18377e-17 -1.37701e-18)
(0.0162305 -3.44011e-17 -1.02275e-18)
(0.0171342 -2.84492e-17 -7.64066e-19)
(0.0179831 -2.3622e-17 -6.00011e-19)
(0.0187827 -1.96817e-17 -3.49389e-19)
(0.0195381 -1.63719e-17 -4.30137e-19)
(0.0202534 -1.36546e-17 -2.75176e-19)
(0.0209325 -1.14149e-17 -1.83794e-19)
(0.0215787 -9.323e-18 -2.04638e-19)
(0.0221949 -7.52117e-18 -5.43053e-20)
(0.0227836 -6.12185e-18 -1.12073e-19)
(0.0233471 -4.95232e-18 -6.16918e-20)
(0.0238872 -3.95586e-18 -5.76679e-20)
(0.0244059 -2.99527e-18 -9.14734e-20)
(0.0249045 -2.00375e-18 -3.65122e-20)
(0.0253846 -1.09404e-18 -7.36268e-20)
(0.0258473 -3.20375e-19 1.24789e-19)
(0.0262938 4.05125e-19 1.0453e-19)
(0.0267251 1.07062e-18 -2.86152e-20)
(0.0271422 1.68517e-18 6.39296e-20)
(0.0275458 2.17777e-18 1.1201e-19)
(0.0279366 2.57449e-18 1.63623e-19)
(0.0283156 3.03708e-18 1.40743e-19)
(0.0286831 3.42902e-18 1.51923e-19)
(0.0290399 3.95632e-18 4.90445e-21)
(0.0293865 4.6323e-18 6.26542e-20)
(0.0297233 4.95515e-18 3.18571e-20)
(0.0300509 5.17453e-18 -2.36359e-21)
(0.0303697 5.49028e-18 9.95403e-20)
(0.03068 5.66707e-18 7.65431e-20)
(0.0309823 5.83646e-18 1.17385e-19)
(0.0312768 6.20946e-18 4.75017e-20)
(0.0315639 6.60755e-18 1.23797e-19)
(0.031844 6.69571e-18 1.56326e-19)
(0.0321172 6.77313e-18 -6.09727e-21)
(0.0323838 6.99948e-18 8.43717e-21)
(0.0326441 6.91535e-18 8.00551e-20)
(0.0328984 6.57219e-18 1.3387e-19)
(0.0331467 6.1669e-18 7.18465e-20)
(0.0333894 5.88118e-18 -1.79827e-20)
(0.0336266 5.87237e-18 -8.74093e-20)
(0.0338585 5.71422e-18 -2.76796e-20)
(0.0340853 5.45297e-18 -1.06126e-19)
(0.0343071 5.16112e-18 6.1653e-20)
(0.0345241 4.81513e-18 -9.86187e-20)
(0.0347364 4.83693e-18 -2.25946e-19)
(0.0349442 5.04891e-18 -1.93611e-19)
(0.0351475 5.18403e-18 -2.3887e-19)
(0.0353466 5.28856e-18 -3.37382e-19)
(0.0355414 5.23472e-18 -1.02219e-19)
(0.0357322 5.02027e-18 -4.3882e-20)
(0.035919 4.96249e-18 -2.14274e-19)
(0.0361019 5.32865e-18 -8.8367e-20)
(0.036281 5.6317e-18 -2.24302e-20)
(0.0364564 5.5695e-18 3.81266e-20)
(0.0366282 5.42275e-18 2.11259e-19)
(0.0367965 5.22922e-18 1.28e-19)
(0.0369612 5.18927e-18 -3.93138e-20)
(0.0371226 5.30695e-18 -2.00675e-20)
(0.0372806 5.48087e-18 -5.48953e-20)
(0.0374353 5.42302e-18 1.36762e-19)
(0.0375868 5.12261e-18 2.11274e-19)
(0.0377351 5.16011e-18 -1.08761e-19)
(0.0378803 4.91347e-18 -1.90649e-21)
(0.0380225 4.32521e-18 -1.51776e-19)
(0.0381616 4.25534e-18 -4.40815e-19)
(0.0382977 4.33868e-18 -3.35648e-19)
(0.0384309 4.57035e-18 -3.96068e-19)
(0.0385611 4.69898e-18 -3.12491e-19)
(0.0386885 4.17017e-18 -1.66334e-19)
(0.0388131 3.73397e-18 -3.09845e-20)
(0.0389348 3.47848e-18 -2.19748e-21)
(0.0390538 3.42214e-18 -2.49872e-19)
(0.03917 3.51271e-18 -1.05401e-19)
(0.0392834 3.35991e-18 -1.24037e-19)
(0.0393942 3.14819e-18 -2.00357e-19)
(0.0395023 3.19734e-18 7.66615e-21)
(0.0396077 3.53202e-18 -1.01522e-19)
(0.0397104 3.43393e-18 1.53734e-20)
(0.0398105 2.94812e-18 1.22816e-20)
(0.0399079 2.39594e-18 -9.93465e-20)
(0.0400028 2.05742e-18 -1.82556e-19)
(0.040095 2.11904e-18 -2.59692e-19)
(0.0401846 1.99575e-18 -6.41301e-20)
(0.0402717 1.82165e-18 -3.43772e-19)
(0.0403561 2.40607e-18 -4.1027e-20)
(0.0404379 3.26664e-18 -2.33481e-19)
(0.0405172 3.43911e-18 -2.04387e-19)
(0.0405938 3.21176e-18 -9.75503e-20)
(0.0406679 3.12843e-18 -9.78801e-20)
(0.0407393 3.02155e-18 1.68491e-19)
(0.0408082 3.26956e-18 3.10092e-20)
(0.0408744 3.564e-18 1.19598e-19)
(0.040938 3.19204e-18 8.18566e-20)
(0.040999 2.94582e-18 -2.1689e-19)
(0.0410573 2.93472e-18 2.14859e-20)
(0.0411129 2.53639e-18 1.85599e-19)
(0.0411659 2.45531e-18 1.14857e-19)
(0.0412162 2.61864e-18 2.71209e-19)
(0.0412638 2.41414e-18 1.83421e-19)
(0.0413086 2.17522e-18 2.64046e-19)
(0.0413507 2.18471e-18 2.17924e-19)
(0.04139 2.65462e-18 1.38522e-19)
(0.0414264 2.52155e-18 5.72669e-19)
(0.0414601 2.00166e-18 2.00481e-19)
(0.0414909 1.55154e-18 1.1485e-19)
(0.0415188 1.19172e-18 -4.98827e-20)
(0.0415437 1.89613e-18 5.94267e-20)
(0.0415657 2.42816e-18 5.87456e-20)
(0.0415846 2.29811e-18 -6.78646e-20)
(0.0416006 2.22178e-18 2.01068e-19)
(0.0416134 1.87592e-18 4.88674e-19)
(0.0416231 1.29455e-18 3.10342e-19)
(0.0416296 7.13131e-19 1.90841e-19)
(0.0416329 2.23836e-19 3.08889e-19)
(0.00303802 -5.10627e-16 -1.22994e-15)
(0.00805911 -7.05942e-16 -7.06481e-16)
(0.0127412 -6.02876e-16 -4.67281e-16)
(0.0171468 -4.28833e-16 -2.8219e-16)
(0.0212861 -3.17379e-16 -1.66235e-16)
(0.0251526 -2.35452e-16 -9.76867e-17)
(0.0287439 -1.74536e-16 -5.93593e-17)
(0.0320674 -1.30352e-16 -3.81856e-17)
(0.0351393 -9.7941e-17 -2.60036e-17)
(0.0379804 -7.35579e-17 -1.88153e-17)
(0.0406133 -5.46763e-17 -1.42169e-17)
(0.04306 -3.9473e-17 -1.12354e-17)
(0.0453409 -2.72632e-17 -8.98289e-18)
(0.0474742 -1.74964e-17 -7.2204e-18)
(0.0494759 -9.47893e-18 -5.72845e-18)
(0.05136 -2.84733e-18 -4.78672e-18)
(0.0531384 2.46172e-18 -3.75281e-18)
(0.0548216 6.6578e-18 -3.1127e-18)
(0.0564186 1.06098e-17 -2.86491e-18)
(0.0579374 1.40867e-17 -2.27246e-18)
(0.0593846 1.66218e-17 -2.03532e-18)
(0.0607664 1.87411e-17 -1.76086e-18)
(0.062088 2.0449e-17 -1.40142e-18)
(0.063354 2.19069e-17 -1.19155e-18)
(0.0645686 2.3316e-17 -1.27109e-18)
(0.0657356 2.48447e-17 -1.31074e-18)
(0.0668581 2.6476e-17 -1.2015e-18)
(0.0679392 2.79709e-17 -1.01672e-18)
(0.0689815 2.89887e-17 -9.49261e-19)
(0.0699875 2.96799e-17 -5.56935e-19)
(0.0709593 3.02415e-17 -5.73057e-19)
(0.071899 3.07646e-17 -6.3777e-19)
(0.0728084 3.14847e-17 -6.76245e-19)
(0.0736891 3.19227e-17 -3.13903e-19)
(0.0745427 3.26734e-17 -4.33686e-19)
(0.0753706 3.3908e-17 -5.89428e-19)
(0.076174 3.45449e-17 -4.7966e-19)
(0.0769543 3.48742e-17 -3.47296e-19)
(0.0777124 3.51252e-17 -2.83895e-19)
(0.0784494 3.50706e-17 -3.3974e-19)
(0.0791663 3.48966e-17 -3.26441e-19)
(0.079864 3.49583e-17 -5.66688e-19)
(0.0805432 3.52123e-17 -2.81677e-19)
(0.0812048 3.51252e-17 7.7797e-20)
(0.0818495 3.51078e-17 1.25683e-19)
(0.0824779 3.58864e-17 3.02984e-19)
(0.0830907 3.63034e-17 3.57405e-19)
(0.0836885 3.57342e-17 6.61668e-19)
(0.0842718 3.50829e-17 5.48585e-19)
(0.0848411 3.47171e-17 4.02697e-19)
(0.085397 3.47504e-17 1.7841e-19)
(0.0859398 3.44685e-17 4.1295e-19)
(0.0864701 3.43171e-17 2.22427e-19)
(0.0869882 3.41956e-17 3.25903e-19)
(0.0874946 3.39615e-17 1.11483e-19)
(0.0879895 3.43238e-17 9.01657e-20)
(0.0884734 3.487e-17 -5.63405e-20)
(0.0889465 3.52954e-17 1.18348e-19)
(0.0894091 3.57153e-17 3.42745e-19)
(0.0898616 3.60625e-17 1.52466e-19)
(0.0903043 3.57163e-17 8.05616e-20)
(0.0907373 3.56544e-17 -2.52039e-19)
(0.0911609 3.6457e-17 1.64253e-19)
(0.0915754 3.71135e-17 1.21769e-19)
(0.091981 3.70069e-17 8.43008e-20)
(0.0923778 3.64602e-17 3.57866e-20)
(0.0927661 3.58345e-17 6.45404e-19)
(0.0931461 3.51441e-17 8.51367e-20)
(0.093518 3.47133e-17 -4.00212e-20)
(0.0938818 3.47445e-17 -1.98001e-20)
(0.0942379 3.48199e-17 7.45246e-19)
(0.0945862 3.40285e-17 7.38815e-19)
(0.094927 3.3783e-17 5.53408e-20)
(0.0952604 3.35787e-17 4.45612e-19)
(0.0955865 3.24862e-17 3.90436e-19)
(0.0959054 3.22333e-17 1.29209e-21)
(0.0962173 3.23986e-17 2.8503e-19)
(0.0965222 3.32387e-17 1.56387e-20)
(0.0968203 3.41472e-17 1.33469e-19)
(0.0971116 3.33205e-17 6.15395e-19)
(0.0973963 3.26598e-17 4.07302e-19)
(0.0976743 3.22411e-17 6.75463e-19)
(0.0979459 3.15089e-17 3.82522e-19)
(0.098211 3.10731e-17 5.47246e-19)
(0.0984697 3.01052e-17 8.39598e-19)
(0.0987221 2.93393e-17 7.17071e-19)
(0.0989682 2.91146e-17 -2.87017e-19)
(0.0992081 2.91205e-17 -2.11916e-19)
(0.0994419 2.82675e-17 3.64582e-19)
(0.0996695 2.65979e-17 7.30675e-19)
(0.099891 2.48662e-17 8.83959e-19)
(0.100106 2.31142e-17 3.87635e-19)
(0.100316 2.22131e-17 1.53533e-19)
(0.100519 2.18077e-17 4.46625e-19)
(0.100717 2.12655e-17 4.68538e-19)
(0.100908 2.13777e-17 1.57223e-19)
(0.101094 2.17344e-17 1.8535e-19)
(0.101273 2.13777e-17 3.24289e-21)
(0.101447 1.96488e-17 8.23868e-19)
(0.101615 1.74924e-17 1.04723e-18)
(0.101776 1.56824e-17 4.82338e-19)
(0.101932 1.42156e-17 5.84454e-19)
(0.102082 1.28901e-17 7.84219e-19)
(0.102226 1.10496e-17 1.23749e-19)
(0.102363 9.878e-18 1.87883e-19)
(0.102495 9.30519e-18 7.20225e-19)
(0.102621 7.93549e-18 5.21581e-19)
(0.102741 6.89836e-18 5.15228e-19)
(0.102854 6.25583e-18 4.51487e-20)
(0.102962 4.84062e-18 4.79667e-19)
(0.103063 4.07655e-18 3.93627e-19)
(0.103158 3.94102e-18 -2.88662e-19)
(0.103246 4.1389e-18 7.1084e-20)
(0.103329 3.85362e-18 7.54684e-19)
(0.103404 3.14211e-18 4.96944e-19)
(0.103474 2.32727e-18 7.80098e-19)
(0.103537 1.49522e-18 -7.41334e-19)
(0.103593 2.47196e-18 -9.45015e-19)
(0.103642 3.95418e-18 -7.63109e-19)
(0.103685 3.78852e-18 1.1964e-19)
(0.103721 3.5622e-18 9.25755e-20)
(0.10375 2.91702e-18 8.85019e-19)
(0.103772 2.58723e-18 -3.40567e-20)
(0.103787 8.75905e-19 3.2356e-19)
(0.103794 3.38395e-19 1.0132e-18)
(0.00473403 -1.6383e-16 -7.05393e-16)
(0.0127412 -4.66951e-16 -6.03787e-16)
(0.020321 -4.97448e-16 -4.9802e-16)
(0.0274669 -4.46474e-16 -3.63933e-16)
(0.0341499 -3.81392e-16 -2.50559e-16)
(0.0403423 -3.15814e-16 -1.69045e-16)
(0.046043 -2.57998e-16 -1.15549e-16)
(0.051277 -2.10375e-16 -8.14627e-17)
(0.0560835 -1.72026e-16 -5.92498e-17)
(0.0605069 -1.41407e-16 -4.45173e-17)
(0.0645903 -1.1676e-16 -3.4528e-17)
(0.0683737 -9.6258e-17 -2.76628e-17)
(0.0718921 -7.92403e-17 -2.24172e-17)
(0.0751762 -6.52363e-17 -1.85667e-17)
(0.0782523 -5.36642e-17 -1.53468e-17)
(0.081143 -4.386e-17 -1.24039e-17)
(0.0838677 -3.56916e-17 -1.01593e-17)
(0.0864429 -2.92232e-17 -8.50609e-18)
(0.0888831 -2.30369e-17 -7.52154e-18)
(0.0912007 -1.73997e-17 -6.20162e-18)
(0.0934064 -1.31419e-17 -5.26725e-18)
(0.0955098 -9.28529e-18 -4.65746e-18)
(0.0975191 -5.91615e-18 -3.94229e-18)
(0.0994418 -3.27784e-18 -3.30218e-18)
(0.101284 -4.47868e-19 -3.39209e-18)
(0.103052 2.43377e-18 -2.88224e-18)
(0.104751 5.03371e-18 -2.47396e-18)
(0.106386 7.55065e-18 -2.36814e-18)
(0.10796 9.53029e-18 -2.1612e-18)
(0.109477 1.10516e-17 -1.76612e-18)
(0.110942 1.22378e-17 -1.41641e-18)
(0.112356 1.34906e-17 -1.86589e-18)
(0.113723 1.53383e-17 -2.24943e-18)
(0.115046 1.65811e-17 -1.50396e-18)
(0.116327 1.75135e-17 -1.29487e-18)
(0.117568 1.93641e-17 -1.62056e-18)
(0.118771 2.08312e-17 -8.43981e-19)
(0.119938 2.14924e-17 -5.88471e-19)
(0.121071 2.20645e-17 -8.08764e-19)
(0.122171 2.26482e-17 -1.28474e-18)
(0.12324 2.30433e-17 -1.17534e-18)
(0.12428 2.37008e-17 -9.14147e-19)
(0.125291 2.47218e-17 -5.94554e-19)
(0.126274 2.49393e-17 1.06941e-19)
(0.127232 2.51707e-17 1.58466e-19)
(0.128165 2.59542e-17 3.41341e-19)
(0.129073 2.63672e-17 4.09368e-19)
(0.129958 2.59246e-17 1.22529e-18)
(0.130822 2.51207e-17 1.1628e-18)
(0.131663 2.47459e-17 9.59676e-19)
(0.132484 2.48004e-17 6.65322e-19)
(0.133285 2.4671e-17 5.2824e-19)
(0.134067 2.44522e-17 4.08719e-19)
(0.13483 2.42883e-17 -2.23836e-19)
(0.135575 2.4102e-17 -1.21603e-19)
(0.136303 2.46074e-17 -9.40653e-19)
(0.137014 2.54615e-17 -5.2396e-19)
(0.137708 2.6118e-17 -1.02462e-19)
(0.138387 2.63224e-17 7.47949e-20)
(0.13905 2.63057e-17 2.50737e-19)
(0.139698 2.61018e-17 -2.83452e-19)
(0.140331 2.6334e-17 -5.85653e-19)
(0.14095 2.73836e-17 -3.05632e-19)
(0.141556 2.79585e-17 1.85861e-19)
(0.142147 2.80073e-17 8.18707e-20)
(0.142726 2.7899e-17 1.59578e-19)
(0.143292 2.71628e-17 8.85791e-19)
(0.143845 2.64493e-17 5.86332e-19)
(0.144386 2.63051e-17 2.64832e-19)
(0.144915 2.66633e-17 2.07333e-21)
(0.145432 2.66794e-17 1.12559e-18)
(0.145938 2.5521e-17 8.91996e-19)
(0.146432 2.54228e-17 2.04531e-19)
(0.146915 2.53803e-17 5.96906e-19)
(0.147388 2.41927e-17 3.74078e-19)
(0.147849 2.38487e-17 -5.91766e-20)
(0.1483 2.38896e-17 -9.98112e-20)
(0.148741 2.46111e-17 -1.65607e-19)
(0.149172 2.56176e-17 -1.71746e-19)
(0.149592 2.47418e-17 6.79084e-19)
(0.150003 2.39422e-17 3.24079e-19)
(0.150404 2.36445e-17 6.80348e-19)
(0.150795 2.29312e-17 7.42805e-19)
(0.151177 2.27249e-17 5.66778e-19)
(0.151549 2.21418e-17 1.28722e-18)
(0.151912 2.1062e-17 1.07476e-18)
(0.152266 2.11007e-17 1.19068e-19)
(0.152611 2.18009e-17 7.00597e-19)
(0.152947 2.10875e-17 1.11692e-18)
(0.153273 1.9441e-17 1.38415e-18)
(0.153591 1.7717e-17 9.40714e-19)
(0.1539 1.61284e-17 1.16267e-18)
(0.1542 1.55533e-17 7.2074e-19)
(0.154492 1.5414e-17 8.13368e-19)
(0.154775 1.52421e-17 8.80637e-21)
(0.155049 1.56535e-17 4.77033e-19)
(0.155314 1.61459e-17 -3.34061e-19)
(0.155571 1.66697e-17 2.11265e-19)
(0.155819 1.5804e-17 1.01481e-18)
(0.156059 1.3666e-17 1.73687e-18)
(0.15629 1.23717e-17 1.51053e-18)
(0.156512 1.18715e-17 1.45784e-18)
(0.156726 1.05334e-17 1.56638e-18)
(0.156931 9.01381e-18 4.75744e-19)
(0.157128 8.66815e-18 1.54375e-19)
(0.157316 8.05751e-18 9.59415e-19)
(0.157495 6.60977e-18 1.53889e-18)
(0.157666 5.70958e-18 1.411e-18)
(0.157827 5.48637e-18 8.15722e-19)
(0.15798 4.52067e-18 1.02554e-18)
(0.158124 3.67695e-18 8.29251e-19)
(0.15826 3.66775e-18 2.62101e-19)
(0.158386 4.30667e-18 -4.97346e-19)
(0.158503 4.13901e-18 7.7409e-19)
(0.158611 3.41902e-18 1.04577e-18)
(0.15871 2.42338e-18 1.34743e-18)
(0.158799 1.44272e-18 1.07623e-19)
(0.158879 2.96346e-18 -1.06866e-18)
(0.158949 4.88891e-18 -3.39391e-19)
(0.15901 4.63355e-18 8.46485e-19)
(0.159061 4.3798e-18 4.13626e-19)
(0.159102 3.49529e-18 1.51665e-18)
(0.159133 2.91319e-18 7.53721e-19)
(0.159154 1.87793e-18 6.62667e-19)
(0.159165 7.81279e-19 2.42176e-18)
(0.00633819 -7.16646e-17 -3.6918e-16)
(0.0171468 -2.81813e-16 -4.30283e-16)
(0.0274669 -3.63354e-16 -4.47535e-16)
(0.037134 -3.78941e-16 -3.80171e-16)
(0.0460453 -3.59361e-16 -2.94346e-16)
(0.0541744 -3.2325e-16 -2.19577e-16)
(0.06156 -2.83179e-16 -1.63067e-16)
(0.0682738 -2.449e-16 -1.22623e-16)
(0.0743965 -2.10845e-16 -9.3702e-17)
(0.0800042 -1.8181e-16 -7.29714e-17)
(0.0851647 -1.57308e-16 -5.79867e-17)
(0.0899359 -1.36088e-16 -4.68664e-17)
(0.0943667 -1.17837e-16 -3.85539e-17)
(0.0984983 -1.02388e-16 -3.21502e-17)
(0.102365 -8.88363e-17 -2.70933e-17)
(0.105997 -7.74512e-17 -2.23896e-17)
(0.109419 -6.80552e-17 -1.90726e-17)
(0.112652 -6.01005e-17 -1.63695e-17)
(0.115714 -5.24691e-17 -1.39332e-17)
(0.11862 -4.54946e-17 -1.14502e-17)
(0.121386 -4.00647e-17 -1.00375e-17)
(0.124022 -3.50529e-17 -8.82963e-18)
(0.126539 -3.03738e-17 -7.77951e-18)
(0.128947 -2.68864e-17 -6.98222e-18)
(0.131253 -2.3224e-17 -6.07326e-18)
(0.133465 -1.92125e-17 -5.21028e-18)
(0.135589 -1.60046e-17 -4.35874e-18)
(0.137631 -1.29698e-17 -4.18095e-18)
(0.139598 -1.0128e-17 -4.16294e-18)
(0.141492 -7.6872e-18 -3.58727e-18)
(0.143319 -6.07889e-18 -3.35867e-18)
(0.145083 -4.48392e-18 -3.54911e-18)
(0.146787 -1.67181e-18 -4.04089e-18)
(0.148435 4.77018e-19 -3.28018e-18)
(0.150029 1.6828e-18 -2.64404e-18)
(0.151573 4.05884e-18 -2.48183e-18)
(0.153069 6.11149e-18 -1.6974e-18)
(0.154519 6.72186e-18 -1.05684e-18)
(0.155926 7.38592e-18 -1.01807e-18)
(0.157291 8.59408e-18 -1.96674e-18)
(0.158617 9.8684e-18 -2.22897e-18)
(0.159905 1.11059e-17 -1.85986e-18)
(0.161157 1.25276e-17 -1.33436e-18)
(0.162374 1.30696e-17 -1.00651e-19)
(0.163558 1.32769e-17 2.86745e-19)
(0.164711 1.40603e-17 3.61375e-19)
(0.165833 1.49558e-17 5.48512e-19)
(0.166925 1.4689e-17 1.36781e-18)
(0.16799 1.37798e-17 1.75313e-18)
(0.169027 1.35562e-17 1.18481e-18)
(0.170038 1.37031e-17 1.00915e-18)
(0.171024 1.37793e-17 8.54628e-19)
(0.171985 1.35134e-17 4.47185e-19)
(0.172923 1.37332e-17 -4.12046e-19)
(0.173838 1.37023e-17 -2.71207e-19)
(0.174731 1.42755e-17 -2.47562e-19)
(0.175603 1.56922e-17 4.27707e-21)
(0.176454 1.61789e-17 5.59188e-20)
(0.177285 1.64655e-17 3.09887e-20)
(0.178096 1.64625e-17 3.29708e-19)
(0.178889 1.62195e-17 2.11292e-19)
(0.179663 1.67627e-17 -6.39484e-19)
(0.180419 1.78777e-17 -1.11279e-18)
(0.181158 1.84745e-17 -4.54284e-19)
(0.181879 1.85328e-17 1.35009e-19)
(0.182585 1.87612e-17 -5.30301e-20)
(0.183274 1.82902e-17 1.2378e-18)
(0.183947 1.7502e-17 1.06354e-18)
(0.184605 1.73676e-17 8.38862e-19)
(0.185248 1.81184e-17 3.8107e-19)
(0.185876 1.8021e-17 4.15488e-19)
(0.18649 1.67967e-17 4.86112e-19)
(0.18709 1.68454e-17 3.65782e-19)
(0.187676 1.67126e-17 -2.15022e-20)
(0.188249 1.56933e-17 4.6239e-19)
(0.188808 1.53896e-17 8.13946e-19)
(0.189354 1.54971e-17 9.82712e-20)
(0.189887 1.60375e-17 -5.78121e-19)
(0.190408 1.70972e-17 -4.2681e-19)
(0.190916 1.63286e-17 4.00554e-19)
(0.191412 1.57153e-17 1.036e-19)
(0.191896 1.57678e-17 1.19886e-19)
(0.192368 1.49299e-17 7.1284e-20)
(0.192829 1.49025e-17 6.13085e-19)
(0.193277 1.46227e-17 1.05074e-18)
(0.193715 1.35728e-17 1.51713e-18)
(0.194141 1.39393e-17 1.48207e-18)
(0.194556 1.47776e-17 2.36743e-18)
(0.19496 1.39024e-17 2.49608e-18)
(0.195352 1.22283e-17 2.12e-18)
(0.195734 1.12959e-17 1.77923e-18)
(0.196106 1.01891e-17 1.52417e-18)
(0.196466 9.19526e-18 1.85583e-18)
(0.196816 9.1582e-18 1.3958e-18)
(0.197155 9.51582e-18 7.97477e-19)
(0.197484 9.85448e-18 6.82116e-19)
(0.197802 1.07182e-17 -1.03121e-18)
(0.19811 1.1847e-17 -1.14454e-19)
(0.198407 1.13114e-17 8.59064e-19)
(0.198694 9.76939e-18 2.05488e-18)
(0.198971 8.82559e-18 1.97789e-18)
(0.199237 8.41594e-18 2.45179e-18)
(0.199493 7.12666e-18 1.9098e-18)
(0.199738 6.09933e-18 1.28716e-18)
(0.199973 5.98928e-18 7.92944e-19)
(0.200198 5.70022e-18 8.19479e-19)
(0.200412 4.59116e-18 1.14033e-18)
(0.200616 3.64399e-18 1.47646e-18)
(0.200809 3.55982e-18 1.86201e-18)
(0.200992 2.93759e-18 1.41235e-18)
(0.201164 2.15701e-18 1.22139e-18)
(0.201325 2.00557e-18 2.67745e-19)
(0.201476 3.12008e-18 -8.89092e-19)
(0.201616 3.71318e-18 1.48243e-18)
(0.201744 2.9721e-18 2.03584e-18)
(0.201862 1.7453e-18 2.2453e-18)
(0.201969 7.84142e-19 8.1329e-19)
(0.202064 2.49911e-18 -2.35132e-20)
(0.202148 4.54637e-18 7.27912e-19)
(0.202221 4.26763e-18 1.6285e-18)
(0.202282 4.17126e-18 1.11977e-18)
(0.202331 3.46823e-18 1.78012e-18)
(0.202368 2.60921e-18 1.94472e-18)
(0.202393 2.35144e-18 1.98931e-18)
(0.202405 1.20388e-18 3.58221e-18)
(0.00786369 -3.83725e-17 -2.30281e-16)
(0.0212861 -1.65689e-16 -3.19223e-16)
(0.0341499 -2.49669e-16 -3.82661e-16)
(0.0460453 -2.92854e-16 -3.60883e-16)
(0.056757 -3.02921e-16 -3.04632e-16)
(0.0663121 -2.92222e-16 -2.44902e-16)
(0.0748584 -2.71331e-16 -1.93594e-16)
(0.0825549 -2.46375e-16 -1.53022e-16)
(0.0895377 -2.21018e-16 -1.21942e-16)
(0.0959176 -1.97501e-16 -9.81223e-17)
(0.101783 -1.76317e-16 -7.99339e-17)
(0.107207 -1.57155e-16 -6.55636e-17)
(0.112246 -1.40146e-16 -5.45009e-17)
(0.116949 -1.25274e-16 -4.56202e-17)
(0.121354 -1.11806e-16 -3.88098e-17)
(0.125496 -1.00233e-16 -3.30919e-17)
(0.129402 -9.04617e-17 -2.8626e-17)
(0.133095 -8.14614e-17 -2.46221e-17)
(0.136596 -7.30813e-17 -2.09998e-17)
(0.139922 -6.59614e-17 -1.80474e-17)
(0.143088 -5.99854e-17 -1.57422e-17)
(0.146108 -5.41816e-17 -1.38518e-17)
(0.148994 -4.90877e-17 -1.23547e-17)
(0.151755 -4.44508e-17 -1.07906e-17)
(0.1544 -3.98677e-17 -9.04895e-18)
(0.156939 -3.56589e-17 -7.86327e-18)
(0.159378 -3.21027e-17 -6.91149e-18)
(0.161723 -2.90295e-17 -6.34835e-18)
(0.163982 -2.56685e-17 -6.23182e-18)
(0.166158 -2.26487e-17 -5.49712e-18)
(0.168257 -2.05409e-17 -5.47075e-18)
(0.170283 -1.8387e-17 -5.28092e-18)
(0.172241 -1.52426e-17 -5.24636e-18)
(0.174134 -1.24331e-17 -4.60911e-18)
(0.175966 -1.06878e-17 -3.95184e-18)
(0.177739 -8.3315e-18 -3.52519e-18)
(0.179457 -6.04387e-18 -3.14831e-18)
(0.181122 -4.89717e-18 -2.41479e-18)
(0.182737 -4.27539e-18 -2.52149e-18)
(0.184305 -3.07174e-18 -3.13726e-18)
(0.185826 -1.19466e-18 -3.19686e-18)
(0.187304 6.30673e-19 -3.05527e-18)
(0.18874 2.44278e-18 -2.32157e-18)
(0.190136 3.33651e-18 -1.02608e-18)
(0.191494 3.6066e-18 -3.50858e-19)
(0.192815 4.28885e-18 3.38167e-19)
(0.1941 5.2625e-18 3.48034e-19)
(0.195352 5.47623e-18 1.4582e-18)
(0.19657 4.61322e-18 1.94971e-18)
(0.197757 4.41819e-18 1.51141e-18)
(0.198914 4.88251e-18 1.37698e-18)
(0.200041 4.98289e-18 1.02491e-18)
(0.20114 4.77176e-18 2.33554e-19)
(0.202212 5.34301e-18 -2.80272e-19)
(0.203257 6.11649e-18 -4.73827e-19)
(0.204276 6.83952e-18 1.32049e-19)
(0.205271 7.66961e-18 2.35571e-19)
(0.206242 8.18124e-18 1.14235e-19)
(0.207189 8.78605e-18 5.09441e-19)
(0.208114 8.97816e-18 7.91375e-19)
(0.209016 8.62502e-18 5.68812e-19)
(0.209898 8.81916e-18 -4.897e-19)
(0.210758 1.01728e-17 -1.65477e-18)
(0.211599 1.13761e-17 -1.43847e-18)
(0.212419 1.15926e-17 -2.28934e-19)
(0.213221 1.21351e-17 9.50657e-19)
(0.214004 1.1681e-17 1.59694e-18)
(0.214768 1.06452e-17 8.25306e-19)
(0.215515 1.0638e-17 1.15341e-18)
(0.216244 1.08484e-17 1.24834e-18)
(0.216957 1.08651e-17 8.1185e-20)
(0.217652 1.03751e-17 1.4188e-19)
(0.218332 1.02989e-17 3.27525e-19)
(0.218995 1.03826e-17 3.79254e-19)
(0.219643 1.00241e-17 6.55963e-19)
(0.220276 9.31882e-18 1.37669e-18)
(0.220893 8.86572e-18 4.7132e-19)
(0.221496 9.5302e-18 -5.94001e-19)
(0.222084 1.09708e-17 -1.11269e-18)
(0.222658 1.04935e-17 7.16977e-19)
(0.223218 9.52765e-18 6.35701e-19)
(0.223764 9.71014e-18 -8.87463e-19)
(0.224297 9.65189e-18 -4.4749e-19)
(0.224816 9.5237e-18 1.05813e-18)
(0.225321 9.47729e-18 8.92512e-19)
(0.225814 9.27383e-18 1.90103e-18)
(0.226294 9.49558e-18 3.07183e-18)
(0.226761 9.6587e-18 3.21782e-18)
(0.227215 8.59212e-18 2.9749e-18)
(0.227657 7.50435e-18 2.85747e-18)
(0.228087 6.67667e-18 2.96762e-18)
(0.228504 5.9897e-18 1.79472e-18)
(0.228909 5.31136e-18 3.44777e-18)
(0.229302 5.17599e-18 2.71609e-18)
(0.229683 5.61798e-18 1.81779e-18)
(0.230052 5.38882e-18 9.28517e-19)
(0.230409 6.47501e-18 -5.46351e-19)
(0.230754 8.31646e-18 -1.73083e-19)
(0.231088 8.22272e-18 1.69599e-18)
(0.231409 6.87006e-18 2.17893e-18)
(0.231719 6.19739e-18 2.01816e-18)
(0.232018 5.75052e-18 3.35014e-18)
(0.232304 4.41471e-18 2.77165e-18)
(0.232579 3.71862e-18 2.35861e-18)
(0.232842 3.50404e-18 1.387e-18)
(0.233094 3.21661e-18 9.35379e-19)
(0.233334 2.71394e-18 4.19609e-19)
(0.233562 2.30727e-18 8.35611e-19)
(0.233778 1.87567e-18 1.8617e-18)
(0.233982 1.21483e-18 1.63393e-18)
(0.234175 6.21468e-19 1.81626e-18)
(0.234355 3.06048e-19 2.73062e-19)
(0.234523 2.10149e-18 -7.39014e-19)
(0.23468 3.14978e-18 1.40729e-18)
(0.234824 2.24876e-18 2.4939e-18)
(0.234955 9.79976e-19 3.11432e-18)
(0.235075 -4.43043e-20 1.6442e-18)
(0.235181 1.82366e-18 4.92752e-19)
(0.235275 3.8549e-18 1.33444e-18)
(0.235356 3.49471e-18 1.92431e-18)
(0.235424 3.43951e-18 1.89267e-18)
(0.235479 3.26129e-18 2.01458e-18)
(0.23552 2.79039e-18 2.26158e-18)
(0.235548 2.4086e-18 2.77778e-18)
(0.235562 1.27899e-18 4.39868e-18)
(0.00930836 -1.97047e-17 -1.55075e-16)
(0.0251526 -9.70011e-17 -2.37693e-16)
(0.0403423 -1.68012e-16 -3.17361e-16)
(0.0541744 -2.17905e-16 -3.25027e-16)
(0.0663121 -2.43039e-16 -2.94216e-16)
(0.0768858 -2.49022e-16 -2.50929e-16)
(0.0861982 -2.42987e-16 -2.08534e-16)
(0.0945166 -2.30099e-16 -1.71659e-16)
(0.102038 -2.13836e-16 -1.41531e-16)
(0.108904 -1.96756e-16 -1.17679e-16)
(0.115221 -1.80101e-16 -9.79109e-17)
(0.121069 -1.64298e-16 -8.18828e-17)
(0.126513 -1.49669e-16 -6.92149e-17)
(0.131603 -1.36497e-16 -5.88285e-17)
(0.13638 -1.24377e-16 -5.04606e-17)
(0.140879 -1.13509e-16 -4.36965e-17)
(0.145129 -1.03793e-16 -3.7778e-17)
(0.149155 -9.47726e-17 -3.27435e-17)
(0.152977 -8.66249e-17 -2.84783e-17)
(0.156613 -7.93401e-17 -2.46171e-17)
(0.16008 -7.29992e-17 -2.13439e-17)
(0.16339 -6.71368e-17 -1.9048e-17)
(0.166556 -6.14429e-17 -1.68052e-17)
(0.169589 -5.6336e-17 -1.42165e-17)
(0.172498 -5.18472e-17 -1.26824e-17)
(0.175291 -4.76137e-17 -1.10534e-17)
(0.177977 -4.385e-17 -9.89828e-18)
(0.180561 -4.05185e-17 -9.22898e-18)
(0.183052 -3.68217e-17 -8.74253e-18)
(0.185453 -3.36011e-17 -8.01719e-18)
(0.18777 -3.11832e-17 -7.48769e-18)
(0.190008 -2.84988e-17 -7.23445e-18)
(0.192171 -2.5239e-17 -6.9603e-18)
(0.194263 -2.22942e-17 -6.50823e-18)
(0.196288 -2.02141e-17 -5.59773e-18)
(0.198249 -1.77968e-17 -5.49883e-18)
(0.200149 -1.53653e-17 -5.01193e-18)
(0.201991 -1.40779e-17 -4.89872e-18)
(0.203778 -1.33097e-17 -4.81303e-18)
(0.205513 -1.154e-17 -4.7848e-18)
(0.207197 -9.49538e-18 -4.42894e-18)
(0.208832 -7.51218e-18 -3.86992e-18)
(0.210421 -5.21767e-18 -3.25221e-18)
(0.211967 -4.1211e-18 -2.13863e-18)
(0.213469 -3.66144e-18 -1.4207e-18)
(0.214931 -3.15296e-18 5.89017e-20)
(0.216353 -1.95758e-18 9.04506e-19)
(0.217738 -1.35741e-18 1.223e-18)
(0.219086 -2.36555e-18 1.29016e-18)
(0.220399 -2.40396e-18 1.22603e-18)
(0.221678 -1.97428e-18 1.50348e-18)
(0.222924 -1.97302e-18 6.07716e-19)
(0.224139 -1.65649e-18 -1.33962e-19)
(0.225324 -8.72444e-19 3.08728e-19)
(0.226479 3.83081e-20 -1.18581e-19)
(0.227605 9.82405e-19 -6.76905e-19)
(0.228703 1.82305e-18 -6.80561e-19)
(0.229775 2.65315e-18 -4.27984e-19)
(0.230821 3.2785e-18 6.64611e-19)
(0.231841 3.24179e-18 9.11633e-19)
(0.232837 2.81714e-18 9.48873e-19)
(0.233809 2.87489e-18 4.16103e-19)
(0.234758 4.27126e-18 -4.15118e-19)
(0.235684 6.09953e-18 -7.27103e-19)
(0.236588 7.17084e-18 -6.69428e-19)
(0.237471 7.2358e-18 1.23169e-18)
(0.238333 5.97052e-18 7.96924e-19)
(0.239175 5.54742e-18 1.0635e-19)
(0.239997 5.96845e-18 3.45529e-20)
(0.240799 5.60402e-18 6.10385e-19)
(0.241582 5.50579e-18 1.72755e-19)
(0.242347 5.64441e-18 2.20028e-19)
(0.243094 5.80745e-18 4.89843e-19)
(0.243823 5.84841e-18 6.62725e-19)
(0.244534 5.71426e-18 7.21654e-19)
(0.245228 4.97836e-18 1.67718e-18)
(0.245906 4.28185e-18 7.24704e-19)
(0.246567 4.74553e-18 1.08823e-19)
(0.247212 6.76877e-18 6.92349e-20)
(0.247842 6.77186e-18 1.75907e-18)
(0.248455 4.82844e-18 1.56899e-18)
(0.249053 5.33452e-18 -1.38856e-18)
(0.249637 6.50289e-18 -5.54824e-19)
(0.250205 6.20801e-18 7.58511e-19)
(0.250758 5.87334e-18 3.22805e-19)
(0.251297 6.471e-18 8.22391e-19)
(0.251822 6.49769e-18 2.56631e-18)
(0.252333 5.93932e-18 2.57348e-18)
(0.25283 5.33093e-18 2.00951e-18)
(0.253312 4.6164e-18 3.2357e-18)
(0.253782 3.62033e-18 3.58393e-18)
(0.254237 3.77535e-18 3.41082e-18)
(0.254679 3.28916e-18 3.78221e-18)
(0.255108 2.25524e-18 3.1122e-18)
(0.255524 2.65597e-18 2.61558e-18)
(0.255926 2.62389e-18 1.45297e-18)
(0.256316 3.73385e-18 5.46665e-19)
(0.256692 5.9237e-18 9.29479e-19)
(0.257056 5.85919e-18 2.37859e-18)
(0.257406 4.52998e-18 2.57547e-18)
(0.257744 4.67153e-18 2.50532e-18)
(0.258069 4.05666e-18 4.05336e-18)
(0.258381 2.49241e-18 3.26517e-18)
(0.258681 1.66689e-18 3.39872e-18)
(0.258967 1.29685e-18 1.78793e-18)
(0.259241 1.22924e-18 9.2932e-19)
(0.259502 1.00358e-18 6.12075e-19)
(0.25975 1.0648e-18 3.94747e-19)
(0.259985 8.89669e-19 9.04618e-19)
(0.260207 4.18482e-19 1.62989e-18)
(0.260416 -6.18118e-19 2.11852e-18)
(0.260613 -1.1174e-18 9.04243e-21)
(0.260796 1.10799e-18 -8.58865e-19)
(0.260965 2.54075e-18 1.52354e-18)
(0.261122 1.88767e-18 2.62346e-18)
(0.261265 2.97103e-19 3.02292e-18)
(0.261394 -9.24766e-19 2.48777e-18)
(0.26151 1.13103e-18 1.57803e-18)
(0.261612 3.22427e-18 1.53736e-18)
(0.2617 2.92748e-18 2.16183e-18)
(0.261774 2.79474e-18 2.65552e-18)
(0.261833 2.72476e-18 2.02913e-18)
(0.261878 2.49e-18 1.54963e-18)
(0.261908 3.00898e-18 1.39335e-18)
(0.261924 1.70016e-18 2.8437e-18)
(0.0106677 -1.02163e-17 -1.09467e-16)
(0.0287439 -5.85717e-17 -1.77316e-16)
(0.046043 -1.1434e-16 -2.5992e-16)
(0.06156 -1.61408e-16 -2.85211e-16)
(0.0748584 -1.91689e-16 -2.73458e-16)
(0.0861982 -2.06588e-16 -2.44891e-16)
(0.0960456 -2.10263e-16 -2.12178e-16)
(0.104776 -2.06446e-16 -1.80911e-16)
(0.112645 -1.98398e-16 -1.53577e-16)
(0.119824 -1.87331e-16 -1.30974e-16)
(0.126434 -1.74911e-16 -1.11558e-16)
(0.132565 -1.63073e-16 -9.53434e-17)
(0.138282 -1.51468e-16 -8.17907e-17)
(0.143639 -1.40333e-16 -7.0678e-17)
(0.148678 -1.29841e-16 -6.11329e-17)
(0.153434 -1.19913e-16 -5.31597e-17)
(0.157936 -1.10834e-16 -4.6138e-17)
(0.162208 -1.02584e-16 -4.0192e-17)
(0.166271 -9.4642e-17 -3.49959e-17)
(0.170144 -8.74824e-17 -3.02808e-17)
(0.173841 -8.16342e-17 -2.62343e-17)
(0.177377 -7.57737e-17 -2.32513e-17)
(0.180764 -6.97488e-17 -2.10001e-17)
(0.184013 -6.48497e-17 -1.83675e-17)
(0.187132 -6.04014e-17 -1.6095e-17)
(0.190131 -5.6028e-17 -1.44389e-17)
(0.193017 -5.24056e-17 -1.30388e-17)
(0.195797 -4.90132e-17 -1.23137e-17)
(0.198478 -4.51461e-17 -1.16113e-17)
(0.201065 -4.16397e-17 -1.02052e-17)
(0.203564 -3.90697e-17 -9.8662e-18)
(0.205979 -3.63797e-17 -9.53863e-18)
(0.208314 -3.3092e-17 -9.40582e-18)
(0.210575 -2.96474e-17 -9.2596e-18)
(0.212763 -2.74988e-17 -8.58359e-18)
(0.214884 -2.53723e-17 -7.94428e-18)
(0.21694 -2.29599e-17 -7.43961e-18)
(0.218934 -2.12489e-17 -7.28338e-18)
(0.220869 -1.97811e-17 -6.74106e-18)
(0.222747 -1.79969e-17 -6.33854e-18)
(0.224571 -1.57052e-17 -6.0036e-18)
(0.226344 -1.3719e-17 -4.76595e-18)
(0.228066 -1.15984e-17 -3.92188e-18)
(0.229741 -1.02699e-17 -2.61206e-18)
(0.23137 -9.17415e-18 -8.28548e-19)
(0.232955 -8.10458e-18 1.70688e-19)
(0.234498 -7.81787e-18 1.51181e-18)
(0.235999 -7.72538e-18 6.28818e-19)
(0.237461 -7.98292e-18 3.41181e-19)
(0.238885 -7.49321e-18 1.48912e-19)
(0.240273 -7.38444e-18 5.8218e-19)
(0.241625 -7.58096e-18 -2.95243e-19)
(0.242942 -6.29186e-18 -9.91353e-19)
(0.244227 -5.41215e-18 2.22702e-20)
(0.245479 -5.27209e-18 -6.96126e-19)
(0.2467 -4.14584e-18 -1.89242e-18)
(0.247891 -2.80643e-18 -1.57749e-18)
(0.249053 -1.48042e-18 -1.14054e-18)
(0.250186 -8.43492e-19 -1.88402e-19)
(0.251292 -1.04026e-18 1.1065e-18)
(0.252371 -1.17691e-18 8.49204e-19)
(0.253424 -1.18062e-18 9.79554e-19)