/*--------------------------------*- C++ -*----------------------------------*\
| =========                 |                                                 |
| \\      /  F ield         | OpenFOAM: The Open Source CFD Toolbox           |
|  \\    /   O peration     | Version:  2306                                  |
|   \\  /    A nd           | Website:  www.openfoam.com                      |
|    \\/     M anipulation  |                                                 |
\*---------------------------------------------------------------------------*/
// * * * * * * * * * * * * * * * * * * * * * * * * * * * * * * * * * * * * * //
FoamFile
{
    version         2;
    format          ascii;
    class           volScalarField;
    location        "98.07";
    object          epsilon;
}

dimensions      [ 0 2 -3 0 0 0 0 ];

internalField   nonuniform List<scalar> 
15625
(
0.00145078
0.0017105
0.00226439
0.00309175
0.00415047
0.00538811
0.00675218
0.00819665
0.00968456
0.0111881
0.0126874
0.0141692
0.0156247
0.017049
0.0184391
0.0197941
0.0211136
0.0223983
0.023649
0.0248667
0.0260528
0.0272084
0.0283348
0.0294332
0.0305047
0.0315504
0.0325714
0.0335686
0.0345431
0.0354955
0.0364269
0.037338
0.0382294
0.039102
0.0399563
0.040793
0.0416126
0.0424158
0.0432029
0.0439746
0.0447313
0.0454734
0.0462013
0.0469155
0.0476163
0.0483041
0.0489792
0.049642
0.0502927
0.0509317
0.0515591
0.0521754
0.0527806
0.0533752
0.0539592
0.054533
0.0550966
0.0556504
0.0561944
0.056729
0.0572541
0.0577701
0.0582769
0.0587749
0.0592641
0.0597446
0.0602166
0.0606801
0.0611354
0.0615824
0.0620213
0.0624521
0.062875
0.06329
0.0636972
0.0640967
0.0644885
0.0648726
0.0652492
0.0656183
0.0659798
0.066334
0.0666806
0.06702
0.0673519
0.0676765
0.0679937
0.0683037
0.0686063
0.0689016
0.0691896
0.0694703
0.0697437
0.0700097
0.0702683
0.0705196
0.0707635
0.071
0.0712289
0.0714504
0.0716644
0.0718708
0.0720695
0.0722606
0.0724439
0.0726194
0.072787
0.0729468
0.0730985
0.0732421
0.0733776
0.0735048
0.0736237
0.0737341
0.073836
0.0739293
0.0740139
0.0740895
0.0741562
0.0742138
0.0742621
0.0743011
0.0743306
0.0743504
0.0743603
0.0017105
0.00123541
0.00124237
0.00148138
0.00185147
0.00230082
0.00279737
0.00331933
0.0038516
0.00438384
0.0049093
0.00542379
0.00592493
0.00641154
0.00688323
0.00734011
0.00778258
0.00821118
0.00862655
0.00902932
0.00942015
0.00979965
0.0101684
0.010527
0.0108759
0.0112156
0.0115465
0.0118691
0.0121838
0.0124908
0.0127906
0.0130833
0.0133695
0.0136492
0.0139227
0.0141903
0.0144522
0.0147086
0.0149597
0.0152056
0.0154466
0.0156828
0.0159144
0.0161414
0.0163641
0.0165825
0.0167968
0.0170071
0.0172135
0.0174161
0.0176149
0.0178102
0.018002
0.0181903
0.0183752
0.0185568
0.0187352
0.0189105
0.0190826
0.0192517
0.0194179
0.0195811
0.0197414
0.0198989
0.0200536
0.0202055
0.0203548
0.0205014
0.0206453
0.0207867
0.0209254
0.0210617
0.0211954
0.0213266
0.0214554
0.0215817
0.0217056
0.0218271
0.0219462
0.0220629
0.0221773
0.0222893
0.0223989
0.0225063
0.0226113
0.022714
0.0228143
0.0229124
0.0230082
0.0231016
0.0231928
0.0232816
0.0233681
0.0234523
0.0235342
0.0236137
0.0236909
0.0237658
0.0238383
0.0239084
0.0239762
0.0240415
0.0241045
0.024165
0.0242231
0.0242786
0.0243317
0.0243823
0.0244304
0.0244759
0.0245188
0.0245591
0.0245968
0.0246318
0.0246641
0.0246936
0.0247204
0.0247444
0.0247655
0.0247838
0.0247991
0.0248115
0.0248208
0.0248271
0.0248302
0.00226439
0.00124237
0.000933917
0.000920802
0.00104506
0.00123893
0.00146946
0.00171867
0.00197597
0.00223486
0.00249136
0.0027431
0.00298875
0.00322766
0.00345962
0.00368465
0.00390294
0.00411475
0.00432037
0.00452011
0.00471428
0.00490317
0.00508705
0.00526618
0.00544081
0.00561114
0.00577739
0.00593974
0.00609838
0.00625347
0.00640514
0.00655356
0.00669884
0.00684111
0.00698048
0.00711706
0.00725095
0.00738223
0.007511
0.00763734
0.00776133
0.00788303
0.00800252
0.00811986
0.00823511
0.00834832
0.00845955
0.00856886
0.00867628
0.00878186
0.00888565
0.00898769
0.00908801
0.00918666
0.00928366
0.00937904
0.00947284
0.00956509
0.00965581
0.00974503
0.00983278
0.00991906
0.0100039
0.0100874
0.0101694
0.0102501
0.0103294
0.0104074
0.010484
0.0105593
0.0106334
0.0107061
0.0107775
0.0108477
0.0109166
0.0109843
0.0110507
0.0111159
0.0111798
0.0112425
0.011304
0.0113643
0.0114233
0.0114812
0.0115378
0.0115932
0.0116474
0.0117003
0.0117521
0.0118026
0.0118519
0.0119
0.0119469
0.0119925
0.0120369
0.01208
0.0121219
0.0121625
0.0122019
0.01224
0.0122768
0.0123124
0.0123466
0.0123795
0.0124111
0.0124414
0.0124703
0.0124979
0.0125241
0.0125489
0.0125723
0.0125943
0.0126148
0.0126339
0.0126515
0.0126677
0.0126823
0.0126954
0.0127069
0.0127169
0.0127252
0.012732
0.0127371
0.0127405
0.0127422
0.00309175
0.00148138
0.000920802
0.000760949
0.000773037
0.000865988
0.000999048
0.00115216
0.00131467
0.00148065
0.00164669
0.00181083
0.00197198
0.00212956
0.00228331
0.00243318
0.00257922
0.00272152
0.00286023
0.00299551
0.00312751
0.00325638
0.00338226
0.0035053
0.00362562
0.00374334
0.00385858
0.00397142
0.00408197
0.00419033
0.00429656
0.00440075
0.00450297
0.00460328
0.00470176
0.00479845
0.00489341
0.0049867
0.00507837
0.00516845
0.005257
0.00534405
0.00542964
0.00551381
0.00559659
0.00567802
0.00575813
0.00583693
0.00591447
0.00599077
0.00606585
0.00613974
0.00621246
0.00628402
0.00635446
0.00642378
0.006492
0.00655915
0.00662524
0.00669028
0.00675428
0.00681727
0.00687925
0.00694023
0.00700023
0.00705925
0.00711731
0.00717442
0.00723057
0.00728579
0.00734008
0.00739344
0.00744588
0.0074974
0.00754802
0.00759773
0.00764654
0.00769446
0.00774148
0.0077876
0.00783284
0.00787719
0.00792065
0.00796323
0.00800492
0.00804572
0.00808563
0.00812466
0.00816279
0.00820003
0.00823638
0.00827183
0.00830638
0.00834002
0.00837276
0.00840458
0.00843548
0.00846546
0.00849451
0.00852263
0.0085498
0.00857602
0.00860128
0.00862558
0.00864891
0.00867125
0.0086926
0.00871294
0.00873228
0.00875059
0.00876786
0.00878409
0.00879926
0.00881335
0.00882636
0.00883827
0.00884907
0.00885873
0.00886725
0.00887461
0.00888079
0.00888577
0.00888953
0.00889206
0.00889334
0.00415047
0.00185147
0.00104506
0.000773037
0.000717042
0.000757525
0.00084366
0.000951848
0.00107042
0.00119333
0.0013173
0.00144057
0.00156216
0.00168157
0.00179854
0.001913
0.00202494
0.00213441
0.0022415
0.00234628
0.00244885
0.0025493
0.00264771
0.00274417
0.00283876
0.00293155
0.0030226
0.00311197
0.00319973
0.00328593
0.00337061
0.00345383
0.00353563
0.00361604
0.00369511
0.00377288
0.00384937
0.00392462
0.00399867
0.00407152
0.00414323
0.0042138
0.00428327
0.00435165
0.00441898
0.00448526
0.00455052
0.00461478
0.00467805
0.00474036
0.00480171
0.00486213
0.00492162
0.0049802
0.00503789
0.00509469
0.00515062
0.00520569
0.00525991
0.00531329
0.00536584
0.00541756
0.00546847
0.00551858
0.00556788
0.0056164
0.00566413
0.00571108
0.00575726
0.00580268
0.00584733
0.00589122
0.00593436
0.00597674
0.00601838
0.00605928
0.00609944
0.00613886
0.00617754
0.00621549
0.0062527
0.00628918
0.00632493
0.00635995
0.00639424
0.00642779
0.00646061
0.0064927
0.00652406
0.00655467
0.00658455
0.00661369
0.00664208
0.00666973
0.00669663
0.00672277
0.00674816
0.00677279
0.00679664
0.00681973
0.00684204
0.00686357
0.00688431
0.00690426
0.0069234
0.00694174
0.00695926
0.00697595
0.00699182
0.00700684
0.00702101
0.00703432
0.00704676
0.00705832
0.00706899
0.00707876
0.00708761
0.00709554
0.00710252
0.00710855
0.00711362
0.0071177
0.00712079
0.00712286
0.00712391
0.00538811
0.00230082
0.00123893
0.000865988
0.000757525
0.000761696
0.000816887
0.000895946
0.000986177
0.00108133
0.0011782
0.0012751
0.00137113
0.00146581
0.00155891
0.00165033
0.00174006
0.0018281
0.00191451
0.00199932
0.00208259
0.00216439
0.00224476
0.00232375
0.00240141
0.00247779
0.00255292
0.00262684
0.00269959
0.0027712
0.0028417
0.00291111
0.00297947
0.00304679
0.00311311
0.00317843
0.00324279
0.0033062
0.00336868
0.00343024
0.0034909
0.00355068
0.0036096
0.00366765
0.00372487
0.00378126
0.00383683
0.00389159
0.00394556
0.00399875
0.00405116
0.00410281
0.0041537
0.00420384
0.00425324
0.00430192
0.00434987
0.0043971
0.00444362
0.00448944
0.00453457
0.004579
0.00462275
0.00466581
0.0047082
0.00474992
0.00479098
0.00483137
0.0048711
0.00491018
0.00494861
0.00498638
0.00502352
0.00506001
0.00509586
0.00513107
0.00516564
0.00519958
0.00523288
0.00526556
0.00529759
0.005329
0.00535978
0.00538992
0.00541944
0.00544832
0.00547657
0.00550418
0.00553116
0.00555751
0.00558321
0.00560828
0.0056327
0.00565648
0.00567962
0.0057021
0.00572393
0.0057451
0.00576561
0.00578545
0.00580463
0.00582313
0.00584095
0.00585809
0.00587453
0.00589028
0.00590533
0.00591967
0.00593329
0.00594619
0.00595836
0.00596978
0.00598046
0.00599039
0.00599954
0.00600793
0.00601552
0.00602232
0.00602832
0.00603349
0.00603784
0.00604134
0.00604399
0.00604577
0.00604667
0.00675218
0.00279737
0.00146946
0.000999048
0.00084366
0.000816887
0.000846449
0.000901942
0.000969715
0.00104325
0.00111926
0.00119603
0.00127265
0.00134863
0.00142371
0.00149776
0.00157073
0.0016426
0.00171338
0.00178309
0.00185177
0.00191944
0.00198613
0.00205186
0.00211667
0.00218057
0.0022436
0.00230577
0.0023671
0.0024276
0.0024873
0.0025462
0.00260433
0.00266169
0.0027183
0.00277416
0.00282929
0.0028837
0.00293739
0.00299038
0.00304268
0.00309428
0.0031452
0.00319545
0.00324503
0.00329395
0.00334221
0.00338982
0.0034368
0.00348313
0.00352883
0.0035739
0.00361835
0.00366218
0.0037054
0.00374801
0.00379001
0.00383141
0.00387221
0.00391242
0.00395204
0.00399107
0.00402951
0.00406738
0.00410466
0.00414137
0.00417751
0.00421307
0.00424807
0.0042825
0.00431636
0.00434966
0.00438239
0.00441457
0.00444619
0.00447724
0.00450774
0.00453769
0.00456708
0.00459591
0.00462418
0.0046519
0.00467907
0.00470568
0.00473173
0.00475722
0.00478216
0.00480654
0.00483036
0.00485361
0.0048763
0.00489843
0.00491999
0.00494098
0.00496139
0.00498123
0.0050005
0.00501918
0.00503728
0.00505479
0.00507171
0.00508803
0.00510375
0.00511887
0.00513338
0.00514727
0.00516054
0.00517318
0.0051852
0.00519657
0.0052073
0.00521737
0.00522679
0.00523554
0.00524361
0.005251
0.00525769
0.00526369
0.00526897
0.00527353
0.00527736
0.00528045
0.00528279
0.00528435
0.00528514
0.00819665
0.00331933
0.00171867
0.00115216
0.000951848
0.000895946
0.000901942
0.000936428
0.000984766
0.00104004
0.00109875
0.00115906
0.00121995
0.00128086
0.00134148
0.00140161
0.00146117
0.0015201
0.00157839
0.00163602
0.001693
0.00174934
0.00180504
0.00186011
0.00191458
0.00196843
0.00202169
0.00207437
0.00212646
0.00217798
0.00222893
0.00227932
0.00232915
0.00237843
0.00242716
0.00247535
0.00252299
0.00257009
0.00261666
0.00266269
0.00270819
0.00275316
0.00279761
0.00284153
0.00288492
0.0029278
0.00297015
0.00301199
0.00305331
0.00309412
0.00313441
0.00317419
0.00321346
0.00325222
0.00329048
0.00332822
0.00336547
0.0034022
0.00343844
0.00347417
0.0035094
0.00354414
0.00357837
0.00361211
0.00364535
0.00367809
0.00371034
0.00374209
0.00377335
0.00380411
0.00383439
0.00386417
0.00389345
0.00392225
0.00395055
0.00397836
0.00400568
0.00403251
0.00405884
0.00408469
0.00411003
0.00413489
0.00415925
0.00418312
0.00420649
0.00422936
0.00425174
0.00427361
0.00429498
0.00431586
0.00433622
0.00435608
0.00437544
0.00439428
0.00441261
0.00443042
0.00444772
0.00446449
0.00448074
0.00449646
0.00451165
0.0045263
0.00454042
0.00455399
0.00456701
0.00457948
0.0045914
0.00460275
0.00461353
0.00462374
0.00463337
0.00464242
0.00465087
0.00465872
0.00466597
0.0046726
0.00467861
0.00468399
0.00468873
0.00469282
0.00469626
0.00469903
0.00470113
0.00470254
0.00470324
0.00968456
0.0038516
0.00197597
0.00131467
0.00107042
0.000986177
0.000969715
0.000984766
0.00101564
0.00105489
0.00109871
0.00114505
0.00119274
0.00124109
0.00128971
0.00133835
0.00138685
0.00143513
0.00148312
0.00153079
0.00157813
0.00162511
0.00167174
0.001718
0.00176389
0.00180941
0.00185456
0.00189933
0.00194373
0.00198776
0.00203141
0.00207468
0.00211757
0.00216008
0.0022022
0.00224394
0.0022853
0.00232626
0.00236684
0.00240702
0.00244681
0.0024862
0.0025252
0.0025638
0.00260199
0.00263978
0.00267717
0.00271415
0.00275072
0.00278689
0.00282264
0.00285798
0.00289291
0.00292743
0.00296152
0.00299521
0.00302847
0.00306132
0.00309374
0.00312574
0.00315733
0.00318849
0.00321922
0.00324953
0.00327942
0.00330888
0.00333791
0.00336652
0.00339469
0.00342244
0.00344976
0.00347664
0.0035031
0.00352912
0.00355471
0.00357986
0.00360458
0.00362887
0.00365271
0.00367612
0.00369909
0.00372161
0.0037437
0.00376534
0.00378654
0.00380729
0.00382759
0.00384745
0.00386685
0.0038858
0.00390429
0.00392233
0.00393991
0.00395703
0.00397368
0.00398986
0.00400558
0.00402082
0.00403559
0.00404988
0.00406369
0.00407701
0.00408984
0.00410218
0.00411402
0.00412536
0.00413619
0.00414651
0.00415631
0.0041656
0.00417435
0.00418258
0.00419026
0.0041974
0.00420399
0.00421002
0.00421548
0.00422038
0.00422469
0.00422841
0.00423154
0.00423406
0.00423596
0.00423724
0.00423789
0.0111881
0.00438384
0.00223486
0.00148065
0.00119333
0.00108133
0.00104325
0.00104004
0.00105489
0.00107976
0.00111045
0.00114463
0.00118095
0.00121859
0.00125703
0.00129595
0.00133513
0.00137444
0.00141379
0.0014531
0.00149234
0.00153146
0.00157044
0.00160928
0.00164794
0.00168642
0.00172471
0.00176279
0.00180067
0.00183834
0.00187577
0.00191298
0.00194995
0.00198668
0.00202317
0.00205939
0.00209536
0.00213107
0.0021665
0.00220166
0.00223654
0.00227114
0.00230544
0.00233946
0.00237317
0.00240659
0.00243969
0.00247249
0.00250497
0.00253714
0.00256898
0.0026005
0.00263169
0.00266254
0.00269307
0.00272325
0.00275309
0.00278259
0.00281175
0.00284055
0.002869
0.0028971
0.00292484
0.00295222
0.00297924
0.0030059
0.00303219
0.00305811
0.00308366
0.00310884
0.00313365
0.00315808
0.00318213
0.0032058
0.0032291
0.00325201
0.00327453
0.00329667
0.00331841
0.00333977
0.00336074
0.00338131
0.00340148
0.00342126
0.00344064
0.00345962
0.00347819
0.00349635
0.00351411
0.00353146
0.0035484
0.00356492
0.00358102
0.0035967
0.00361196
0.0036268
0.00364121
0.00365518
0.00366873
0.00368183
0.0036945
0.00370672
0.00371849
0.00372981
0.00374068
0.00375108
0.00376102
0.0037705
0.0037795
0.00378802
0.00379606
0.0038036
0.00381066
0.00381722
0.00382327
0.0038288
0.00383382
0.00383831
0.00384227
0.00384569
0.00384856
0.00385088
0.00385262
0.0038538
0.00385439
0.0126874
0.0049093
0.00249136
0.00164669
0.0013173
0.0011782
0.00111926
0.00109875
0.00109871
0.00111045
0.00112933
0.00115273
0.00117906
0.00120736
0.001237
0.00126755
0.00129875
0.00133039
0.00136235
0.00139453
0.00142686
0.00145928
0.00149175
0.00152424
0.00155673
0.00158918
0.0016216
0.00165395
0.00168623
0.00171842
0.00175051
0.0017825
0.00181436
0.00184609
0.00187769
0.00190914
0.00194043
0.00197157
0.00200253
0.00203332
0.00206392
0.00209433
0.00212454
0.00215455
0.00218435
0.00221393
0.00224329
0.00227242
0.00230132
0.00232998
0.00235839
0.00238655
0.00241446
0.00244211
0.0024695
0.00249662
0.00252346
0.00255003
0.00257631
0.00260231
0.00262802
0.00265344
0.00267856
0.00270338
0.00272789
0.0027521
0.00277599
0.00279957
0.00282284
0.00284578
0.0028684
0.0028907
0.00291266
0.0029343
0.0029556
0.00297656
0.00299718
0.00301746
0.0030374
0.00305699
0.00307623
0.00309511
0.00311364
0.00313182
0.00314963
0.00316709
0.00318417
0.00320089
0.00321724
0.00323322
0.00324883
0.00326405
0.0032789
0.00329336
0.00330744
0.00332112
0.00333442
0.00334732
0.00335982
0.00337192
0.00338362
0.00339491
0.00340579
0.00341625
0.00342629
0.0034359
0.00344509
0.00345385
0.00346217
0.00347005
0.00347749
0.00348447
0.00349099
0.00349706
0.00350265
0.00350778
0.00351242
0.00351657
0.00352024
0.0035234
0.00352606
0.0035282
0.00352981
0.0035309
0.00353145
0.0141692
0.00542379
0.0027431
0.00181083
0.00144057
0.0012751
0.00119603
0.00115906
0.00114505
0.00114463
0.00115273
0.00116638
0.0011838
0.00120382
0.00122571
0.00124895
0.00127318
0.00129817
0.00132374
0.00134975
0.00137611
0.00140274
0.00142959
0.00145661
0.00148376
0.00151102
0.00153835
0.00156574
0.00159317
0.00162061
0.00164805
0.00167549
0.0017029
0.00173027
0.0017576
0.00178487
0.00181207
0.0018392
0.00186623
0.00189317
0.00192001
0.00194673
0.00197333
0.00199981
0.00202614
0.00205233
0.00207838
0.00210426
0.00212998
0.00215553
0.0021809
0.00220608
0.00223108
0.00225588
0.00228047
0.00230486
0.00232904
0.002353
0.00237673
0.00240023
0.00242351
0.00244654
0.00246933
0.00249187
0.00251415
0.00253618
0.00255795
0.00257946
0.00260069
0.00262165
0.00264233
0.00266274
0.00268286
0.00270269
0.00272222
0.00274147
0.00276041
0.00277905
0.00279739
0.00281542
0.00283314
0.00285055
0.00286763
0.0028844
0.00290084
0.00291696
0.00293275
0.00294821
0.00296333
0.00297811
0.00299255
0.00300665
0.0030204
0.0030338
0.00304684
0.00305953
0.00307186
0.00308383
0.00309543
0.00310666
0.00311752
0.003128
0.00313811
0.00314782
0.00315715
0.00316609
0.00317463
0.00318277
0.00319051
0.00319783
0.00320475
0.00321124
0.00321731
0.00322295
0.00322816
0.00323292
0.00323724
0.00324111
0.00324452
0.00324746
0.00324993
0.00325193
0.00325343
0.00325445
0.00325496
0.0156247
0.00592493
0.00298875
0.00197198
0.00156216
0.00137113
0.00127265
0.00121995
0.00119274
0.00118095
0.00117906
0.0011838
0.00119311
0.0012057
0.00122066
0.0012374
0.00125549
0.00127462
0.00129458
0.00131519
0.00133634
0.00135792
0.00137987
0.00140211
0.00142462
0.00144734
0.00147024
0.00149329
0.00151647
0.00153976
0.00156314
0.00158659
0.00161009
0.00163364
0.00165721
0.00168079
0.00170438
0.00172797
0.00175153
0.00177506
0.00179856
0.00182201
0.0018454
0.00186873
0.00189198
0.00191515
0.00193823
0.00196121
0.00198409
0.00200685
0.0020295
0.00205201
0.00207439
0.00209663
0.00211873
0.00214066
0.00216244
0.00218405
0.00220549
0.00222675
0.00224783
0.00226871
0.0022894
0.00230989
0.00233018
0.00235025
0.0023701
0.00238974
0.00240915
0.00242832
0.00244727
0.00246597
0.00248443
0.00250264
0.00252059
0.0025383
0.00255574
0.00257291
0.00258982
0.00260646
0.00262281
0.0026389
0.00265469
0.0026702
0.00268542
0.00270035
0.00271498
0.00272931
0.00274334
0.00275706
0.00277047
0.00278357
0.00279634
0.0028088
0.00282094
0.00283274
0.00284422
0.00285537
0.00286617
0.00287664
0.00288676
0.00289653
0.00290595
0.00291501
0.00292371
0.00293205
0.00294003
0.00294763
0.00295485
0.00296169
0.00296815
0.00297421
0.00297989
0.00298516
0.00299002
0.00299448
0.00299851
0.00300213
0.00300531
0.00300807
0.00301038
0.00301224
0.00301365
0.0030146
0.00301507
0.017049
0.00641154
0.00322766
0.00212956
0.00168157
0.00146581
0.00134863
0.00128086
0.00124109
0.00121859
0.00120736
0.00120382
0.0012057
0.00121149
0.00122018
0.00123107
0.00124365
0.00125757
0.00127254
0.00128838
0.00130492
0.00132205
0.00133969
0.00135774
0.00137615
0.00139488
0.00141389
0.00143313
0.00145257
0.00147221
0.001492
0.00151193
0.00153198
0.00155214
0.00157238
0.0015927
0.00161309
0.00163352
0.001654
0.0016745
0.00169502
0.00171554
0.00173607
0.00175658
0.00177707
0.00179752
0.00181795
0.00183832
0.00185864
0.00187889
0.00189908
0.00191919
0.00193921
0.00195913
0.00197896
0.00199868
0.00201829
0.00203777
0.00205713
0.00207635
0.00209544
0.00211437
0.00213316
0.00215178
0.00217025
0.00218854
0.00220665
0.00222459
0.00224233
0.00225989
0.00227725
0.00229441
0.00231136
0.0023281
0.00234462
0.00236092
0.00237699
0.00239284
0.00240845
0.00242382
0.00243895
0.00245383
0.00246846
0.00248283
0.00249695
0.0025108
0.00252439
0.0025377
0.00255074
0.0025635
0.00257598
0.00258818
0.00260008
0.0026117
0.00262301
0.00263403
0.00264474
0.00265514
0.00266524
0.00267501
0.00268447
0.00269361
0.00270242
0.0027109
0.00271904
0.00272685
0.00273432
0.00274143
0.0027482
0.00275461
0.00276066
0.00276635
0.00277166
0.00277661
0.00278117
0.00278535
0.00278913
0.00279252
0.00279551
0.0027981
0.00280026
0.00280201
0.00280333
0.00280422
0.00280467
0.0184391
0.00688323
0.00345962
0.00228331
0.00179854
0.00155891
0.00142371
0.00134148
0.00128971
0.00125703
0.001237
0.00122571
0.00122066
0.00122018
0.00122312
0.00122868
0.00123628
0.00124549
0.00125599
0.00126755
0.00127999
0.00129316
0.00130696
0.00132129
0.00133608
0.00135127
0.00136682
0.00138268
0.00139883
0.00141521
0.00143182
0.00144863
0.00146562
0.00148276
0.00150005
0.00151747
0.00153499
0.00155262
0.00157033
0.00158812
0.00160597
0.00162387
0.00164182
0.0016598
0.0016778
0.00169581
0.00171384
0.00173185
0.00174986
0.00176784
0.0017858
0.00180372
0.0018216
0.00183943
0.00185719
0.00187489
0.00189252
0.00191006
0.00192752
0.00194489
0.00196215
0.00197931
0.00199635
0.00201327
0.00203006
0.00204672
0.00206324
0.00207962
0.00209585
0.00211192
0.00212782
0.00214356
0.00215913
0.00217452
0.00218973
0.00220474
0.00221957
0.00223419
0.00224861
0.00226282
0.00227682
0.00229061
0.00230417
0.0023175
0.00233061
0.00234348
0.00235611
0.00236849
0.00238063
0.00239252
0.00240416
0.00241553
0.00242664
0.00243748
0.00244805
0.00245835
0.00246836
0.00247809
0.00248754
0.0024967
0.00250556
0.00251412
0.00252238
0.00253033
0.00253797
0.00254529
0.0025523
0.00255898
0.00256533
0.00257136
0.00257704
0.00258238
0.00258738
0.00259203
0.00259632
0.00260024
0.00260381
0.002607
0.00260981
0.00261224
0.00261428
0.00261592
0.00261717
0.002618
0.00261842
0.0197941
0.00734011
0.00368465
0.00243318
0.001913
0.00165033
0.00149776
0.00140161
0.00133835
0.00129595
0.00126755
0.00124895
0.0012374
0.00123107
0.00122868
0.00122933
0.00123236
0.00123727
0.00124372
0.00125142
0.00126016
0.00126977
0.00128013
0.00129113
0.00130268
0.00131472
0.00132719
0.00134004
0.00135324
0.00136673
0.00138051
0.00139453
0.00140878
0.00142324
0.00143788
0.00145269
0.00146766
0.00148277
0.001498
0.00151335
0.0015288
0.00154434
0.00155997
0.00157566
0.00159141
0.00160722
0.00162307
0.00163895
0.00165485
0.00167078
0.00168671
0.00170264
0.00171856
0.00173447
0.00175035
0.0017662
0.00178202
0.00179779
0.0018135
0.00182916
0.00184475
0.00186027
0.00187571
0.00189106
0.00190632
0.00192148
0.00193653
0.00195147
0.00196629
0.00198099
0.00199556
0.00200999
0.00202428
0.00203842
0.00205241
0.00206624
0.00207991
0.0020934
0.00210672
0.00211987
0.00213283
0.00214559
0.00215817
0.00217054
0.00218271
0.00219468
0.00220643
0.00221796
0.00222927
0.00224035
0.0022512
0.00226182
0.00227219
0.00228233
0.00229221
0.00230185
0.00231122
0.00232034
0.00232919
0.00233778
0.00234609
0.00235412
0.00236187
0.00236934
0.00237652
0.0023834
0.00238999
0.00239627
0.00240225
0.00240792
0.00241327
0.0024183
0.002423
0.00242738
0.00243142
0.00243512
0.00243848
0.00244149
0.00244414
0.00244643
0.00244835
0.0024499
0.00245107
0.00245186
0.00245226
0.0211136
0.00778258
0.00390294
0.00257922
0.00202494
0.00174006
0.00157073
0.00146117
0.00138685
0.00133513
0.00129875
0.00127318
0.00125549
0.00124365
0.00123628
0.00123236
0.00123115
0.00123212
0.00123484
0.00123902
0.00124439
0.00125078
0.00125804
0.00126603
0.00127467
0.00128388
0.00129359
0.00130374
0.00131428
0.00132519
0.00133642
0.00134795
0.00135974
0.00137178
0.00138405
0.00139653
0.00140919
0.00142203
0.00143503
0.00144818
0.00146147
0.00147488
0.0014884
0.00150202
0.00151574
0.00152954
0.00154341
0.00155735
0.00157134
0.00158538
0.00159947
0.00161358
0.00162771
0.00164186
0.00165602
0.00167018
0.00168433
0.00169846
0.00171258
0.00172666
0.00174071
0.00175472
0.00176868
0.00178258
0.00179642
0.00181019
0.00182388
0.00183749
0.00185101
0.00186443
0.00187776
0.00189097
0.00190408
0.00191706
0.00192992
0.00194264
0.00195523
0.00196768
0.00197998
0.00199213
0.00200412
0.00201594
0.0020276
0.00203908
0.00205038
0.0020615
0.00207243
0.00208317
0.0020937
0.00210404
0.00211416
0.00212408
0.00213377
0.00214325
0.0021525
0.00216152
0.0021703
0.00217885
0.00218715
0.0021952
0.00220301
0.00221055
0.00221784
0.00222486
0.00223161
0.00223808
0.00224428
0.0022502
0.00225583
0.00226117
0.00226621
0.00227095
0.00227539
0.00227952
0.00228333
0.00228682
0.00228999
0.00229283
0.00229533
0.00229749
0.00229931
0.00230077
0.00230188
0.00230262
0.002303
0.0223983
0.00821118
0.00411475
0.00272152
0.00213441
0.0018281
0.0016426
0.0015201
0.00143513
0.00137444
0.00133039
0.00129817
0.00127462
0.00125757
0.00124549
0.00123727
0.00123212
0.00122941
0.0012287
0.00122963
0.00123192
0.00123537
0.00123979
0.00124506
0.00125106
0.0012577
0.00126491
0.00127262
0.00128078
0.00128935
0.00129829
0.00130757
0.00131715
0.00132702
0.00133714
0.00134751
0.0013581
0.00136889
0.00137987
0.00139103
0.00140236
0.00141383
0.00142545
0.00143719
0.00144906
0.00146103
0.00147311
0.00148527
0.00149752
0.00150984
0.00152223
0.00153467
0.00154717
0.0015597
0.00157228
0.00158487
0.00159749
0.00161012
0.00162276
0.00163539
0.00164802
0.00166062
0.00167321
0.00168577
0.00169829
0.00171076
0.00172319
0.00173556
0.00174787
0.00176011
0.00177227
0.00178436
0.00179635
0.00180825
0.00182006
0.00183175
0.00184334
0.0018548
0.00186615
0.00187736
0.00188844
0.00189939
0.00191018
0.00192083
0.00193132
0.00194164
0.00195181
0.0019618
0.00197161
0.00198125
0.00199069
0.00199995
0.00200901
0.00201787
0.00202652
0.00203497
0.0020432
0.00205121
0.002059
0.00206656
0.00207388
0.00208097
0.00208782
0.00209442
0.00210078
0.00210687
0.00211271
0.00211829
0.00212359
0.00212863
0.00213338
0.00213786
0.00214204
0.00214594
0.00214954
0.00215284
0.00215583
0.00215851
0.00216087
0.00216292
0.00216463
0.00216602
0.00216706
0.00216777
0.00216812
0.023649
0.00862655
0.00432037
0.00286023
0.0022415
0.00191451
0.00171338
0.00157839
0.00148312
0.00141379
0.00136235
0.00132374
0.00129458
0.00127254
0.00125599
0.00124372
0.00123484
0.0012287
0.00122478
0.0012227
0.00122214
0.00122287
0.0012247
0.00122747
0.00123106
0.00123536
0.00124029
0.00124579
0.00125179
0.00125825
0.00126511
0.00127235
0.00127993
0.00128783
0.00129602
0.00130448
0.00131318
0.00132212
0.00133127
0.00134063
0.00135017
0.00135989
0.00136977
0.0013798
0.00138998
0.00140029
0.00141072
0.00142127
0.00143191
0.00144266
0.0014535
0.00146441
0.0014754
0.00148645
0.00149756
0.00150872
0.00151993
0.00153116
0.00154243
0.00155372
0.00156502
0.00157633
0.00158765
0.00159895
0.00161024
0.00162152
0.00163277
0.00164398
0.00165516
0.00166629
0.00167737
0.0016884
0.00169935
0.00171024
0.00172105
0.00173178
0.00174242
0.00175297
0.00176342
0.00177376
0.00178398
0.00179409
0.00180408
0.00181394
0.00182366
0.00183325
0.00184269
0.00185198
0.00186111
0.00187008
0.00187889
0.00188753
0.00189599
0.00190427
0.00191236
0.00192027
0.00192797
0.00193548
0.00194279
0.00194988
0.00195676
0.00196342
0.00196986
0.00197607
0.00198205
0.00198779
0.00199329
0.00199854
0.00200354
0.00200829
0.00201278
0.002017
0.00202095
0.00202463
0.00202803
0.00203115
0.00203397
0.00203651
0.00203874
0.00204068
0.0020423
0.00204361
0.0020446
0.00204526
0.0020456
0.0248667
0.00902932
0.00452011
0.00299551
0.00234628
0.00199932
0.00178309
0.00163602
0.00153079
0.0014531
0.00139453
0.00134975
0.00131519
0.00128838
0.00126755
0.00125142
0.00123902
0.00122963
0.0012227
0.00121779
0.00121458
0.00121279
0.00121222
0.00121269
0.00121406
0.00121622
0.00121907
0.00122255
0.00122658
0.0012311
0.00123608
0.00124147
0.00124723
0.00125334
0.00125977
0.00126649
0.00127348
0.00128073
0.00128822
0.00129594
0.00130386
0.00131197
0.00132027
0.00132875
0.00133738
0.00134617
0.00135509
0.00136415
0.00137334
0.00138264
0.00139205
0.00140156
0.00141116
0.00142084
0.0014306
0.00144043
0.00145033
0.00146028
0.00147028
0.00148032
0.00149039
0.0015005
0.00151063
0.00152077
0.00153092
0.00154107
0.00155121
0.00156135
0.00157147
0.00158156
0.00159163
0.00160165
0.00161164
0.00162157
0.00163145
0.00164127
0.00165103
0.0016607
0.0016703
0.00167982
0.00168924
0.00169857
0.00170779
0.0017169
0.00172591
0.00173479
0.00174354
0.00175217
0.00176066
0.00176901
0.00177721
0.00178526
0.00179315
0.00180088
0.00180845
0.00181584
0.00182305
0.00183009
0.00183693
0.00184358
0.00185004
0.0018563
0.00186235
0.00186819
0.00187381
0.00187921
0.00188439
0.00188934
0.00189406
0.00189853
0.00190277
0.00190675
0.00191048
0.00191396
0.00191717
0.00192011
0.00192278
0.00192518
0.00192729
0.00192912
0.00193065
0.00193189
0.00193283
0.00193346
0.00193378
0.0260528
0.00942015
0.00471428
0.00312751
0.00244885
0.00208259
0.00185177
0.001693
0.00157813
0.00149234
0.00142686
0.00137611
0.00133634
0.00130492
0.00127999
0.00126016
0.00124439
0.00123192
0.00122214
0.00121458
0.00120888
0.00120473
0.00120192
0.00120025
0.00119957
0.00119976
0.0012007
0.00120232
0.00120454
0.0012073
0.00121055
0.00121424
0.00121835
0.00122282
0.00122764
0.00123278
0.00123822
0.00124393
0.0012499
0.00125611
0.00126255
0.00126921
0.00127606
0.00128311
0.00129033
0.00129772
0.00130527
0.00131297
0.0013208
0.00132878
0.00133687
0.00134508
0.0013534
0.00136182
0.00137034
0.00137894
0.00138763
0.00139638
0.0014052
0.00141408
0.00142302
0.001432
0.00144102
0.00145008
0.00145916
0.00146826
0.00147737
0.0014865
0.00149562
0.00150474
0.00151385
0.00152295
0.00153201
0.00154105
0.00155006
0.00155902
0.00156793
0.00157679
0.00158559
0.00159432
0.00160298
0.00161156
0.00162006
0.00162847
0.00163679
0.001645
0.00165311
0.00166111
0.00166898
0.00167674
0.00168437
0.00169186
0.00169921
0.00170642
0.00171348
0.00172039
0.00172713
0.00173371
0.00174012
0.00174636
0.00175241
0.00175828
0.00176396
0.00176945
0.00177473
0.00177982
0.00178469
0.00178935
0.00179379
0.00179801
0.001802
0.00180576
0.00180928
0.00181256
0.00181559
0.00181837
0.0018209
0.00182316
0.00182516
0.00182689
0.00182834
0.00182951
0.00183039
0.00183099
0.00183129
0.0272084
0.00979965
0.00490317
0.00325638
0.0025493
0.00216439
0.00191944
0.00174934
0.00162511
0.00153146
0.00145928
0.00140274
0.00135792
0.00132205
0.00129316
0.00126977
0.00125078
0.00123537
0.00122287
0.00121279
0.00120473
0.00119838
0.00119347
0.0011898
0.00118721
0.00118556
0.00118473
0.00118464
0.00118519
0.00118632
0.00118799
0.00119013
0.00119271
0.00119569
0.00119904
0.00120273
0.00120674
0.00121104
0.00121563
0.00122047
0.00122555
0.00123086
0.00123639
0.00124213
0.00124806
0.00125417
0.00126045
0.00126689
0.00127349
0.00128024
0.00128713
0.00129414
0.00130128
0.00130853
0.0013159
0.00132336
0.00133092
0.00133857
0.00134629
0.0013541
0.00136197
0.0013699
0.00137789
0.00138593
0.00139401
0.00140213
0.00141028
0.00141846
0.00142665
0.00143486
0.00144307
0.00145128
0.00145948