/*--------------------------------*- C++ -*----------------------------------*\
| =========                 |                                                 |
| \\      /  F ield         | OpenFOAM: The Open Source CFD Toolbox           |
|  \\    /   O peration     | Version:  4.x                                   |
|   \\  /    A nd           | Web:      www.OpenFOAM.org                      |
|    \\/     M anipulation  |                                                 |
\*---------------------------------------------------------------------------*/
FoamFile
{
    version     2.0;
    format      ascii;
    class       volScalarField;
    location    "98.07";
    object      k;
}
// * * * * * * * * * * * * * * * * * * * * * * * * * * * * * * * * * * * * * //

dimensions      [0 2 -2 0 0 0 0];

internalField   nonuniform List<scalar> 
15625
(
0.000465193
0.000519177
0.000625941
0.000770375
0.000937484
0.00111564
0.00129677
0.00147567
0.00164925
0.00181581
0.00197461
0.0021255
0.00226868
0.00240454
0.00253353
0.00265617
0.00277294
0.00288431
0.00299071
0.00309251
0.00319008
0.00328373
0.00337375
0.00346038
0.00354386
0.0036244
0.00370217
0.00377736
0.00385011
0.00392056
0.00398885
0.00405508
0.00411937
0.00418182
0.00424251
0.00430153
0.00435895
0.00441486
0.00446932
0.00452238
0.00457411
0.00462456
0.00467378
0.00472183
0.00476873
0.00481454
0.0048593
0.00490304
0.00494579
0.00498759
0.00502847
0.00506846
0.00510758
0.00514587
0.00518334
0.00522001
0.00525592
0.00529108
0.00532551
0.00535923
0.00539225
0.0054246
0.00545628
0.00548732
0.00551772
0.00554751
0.00557669
0.00560527
0.00563327
0.0056607
0.00568756
0.00571387
0.00573964
0.00576487
0.00578957
0.00581375
0.00583741
0.00586057
0.00588323
0.00590539
0.00592707
0.00594825
0.00596896
0.00598919
0.00600895
0.00602824
0.00604707
0.00606543
0.00608333
0.00610078
0.00611777
0.0061343
0.00615038
0.00616601
0.00618119
0.00619592
0.00621019
0.00622402
0.0062374
0.00625032
0.00626279
0.00627481
0.00628637
0.00629747
0.00630812
0.00631831
0.00632803
0.00633728
0.00634606
0.00635437
0.00636221
0.00636956
0.00637643
0.0063828
0.00638868
0.00639406
0.00639893
0.00640329
0.00640714
0.00641045
0.00641324
0.00641548
0.00641717
0.00641831
0.00641889
0.000519177
0.000441249
0.000451422
0.000507659
0.000588523
0.000681634
0.000779504
0.000877628
0.000973404
0.00106544
0.00115311
0.00123625
0.00131493
0.00138939
0.00145991
0.00152682
0.00159039
0.00165093
0.00170868
0.00176388
0.00181674
0.00186745
0.00191617
0.00196304
0.00200821
0.00205178
0.00209387
0.00213458
0.00217398
0.00221215
0.00224918
0.00228511
0.00232002
0.00235395
0.00238696
0.00241909
0.00245039
0.00248089
0.00251062
0.00253963
0.00256795
0.00259559
0.0026226
0.00264899
0.00267479
0.00270001
0.00272469
0.00274884
0.00277248
0.00279562
0.00281828
0.00284047
0.00286222
0.00288353
0.00290441
0.00292488
0.00294494
0.00296462
0.00298391
0.00300283
0.00302139
0.00303959
0.00305744
0.00307495
0.00309213
0.00310898
0.0031255
0.00314172
0.00315762
0.00317321
0.00318851
0.00320351
0.00321821
0.00323263
0.00324676
0.00326061
0.00327419
0.00328749
0.00330051
0.00331327
0.00332575
0.00333798
0.00334993
0.00336163
0.00337306
0.00338424
0.00339515
0.00340581
0.00341621
0.00342635
0.00343624
0.00344587
0.00345525
0.00346437
0.00347324
0.00348185
0.0034902
0.00349829
0.00350613
0.00351371
0.00352103
0.00352808
0.00353488
0.00354141
0.00354767
0.00355366
0.00355939
0.00356484
0.00357002
0.00357492
0.00357954
0.00358388
0.00358794
0.0035917
0.00359518
0.00359836
0.00360124
0.00360382
0.00360609
0.00360806
0.0036097
0.00361103
0.00361204
0.00361271
0.00361305
0.000625941
0.000451422
0.000406155
0.000426032
0.000480319
0.000552685
0.000633692
0.00071771
0.000801417
0.000882948
0.000961348
0.00103622
0.00110748
0.00117523
0.00123966
0.001301
0.0013595
0.00141537
0.00146884
0.00152009
0.00156931
0.00161665
0.00166225
0.00170624
0.00174874
0.00178985
0.00182965
0.00186824
0.00190569
0.00194205
0.00197741
0.00201181
0.0020453
0.00207793
0.00210975
0.00214079
0.00217109
0.00220069
0.00222961
0.00225788
0.00228554
0.00231261
0.0023391
0.00236505
0.00239047
0.00241538
0.0024398
0.00246374
0.00248722
0.00251025
0.00253286
0.00255504
0.00257682
0.00259819
0.00261919
0.0026398
0.00266005
0.00267994
0.00269947
0.00271867
0.00273753
0.00275605
0.00277426
0.00279215
0.00280972
0.00282699
0.00284395
0.00286062
0.002877
0.00289308
0.00290888
0.00292439
0.00293963
0.00295458
0.00296927
0.00298367
0.00299781
0.00301168
0.00302529
0.00303863
0.0030517
0.00306451
0.00307706
0.00308935
0.00310138
0.00311315
0.00312466
0.0031359
0.00314689
0.00315762
0.00316809
0.00317829
0.00318824
0.00319792
0.00320734
0.00321649
0.00322538
0.003234
0.00324235
0.00325044
0.00325825
0.00326578
0.00327304
0.00328003
0.00328673
0.00329315
0.00329928
0.00330513
0.00331068
0.00331594
0.0033209
0.00332556
0.00332992
0.00333397
0.0033377
0.00334112
0.00334422
0.003347
0.00334944
0.00335156
0.00335333
0.00335476
0.00335584
0.00335657
0.00335693
0.000770375
0.000507659
0.000426032
0.000434961
0.000491566
0.000573112
0.000666594
0.000764401
0.000862154
0.000957455
0.0010491
0.00113659
0.00121983
0.00129894
0.00137413
0.00144569
0.00151389
0.001579
0.00164128
0.00170095
0.00175822
0.00181328
0.0018663
0.00191743
0.0019668
0.00201454
0.00206075
0.00210553
0.00214898
0.00219116
0.00223216
0.00227204
0.00231086
0.00234869
0.00238556
0.00242152
0.00245663
0.00249092
0.00252443
0.00255718
0.00258922
0.00262057
0.00265127
0.00268132
0.00271077
0.00273962
0.00276791
0.00279565
0.00282286
0.00284955
0.00287574
0.00290145
0.00292669
0.00295147
0.00297581
0.00299971
0.00302319
0.00304625
0.00306891
0.00309117
0.00311305
0.00313455
0.00315567
0.00317643
0.00319683
0.00321687
0.00323657
0.00325592
0.00327494
0.00329362
0.00331196
0.00332999
0.00334769
0.00336506
0.00338213
0.00339887
0.00341531
0.00343143
0.00344725
0.00346276
0.00347796
0.00349286
0.00350745
0.00352175
0.00353574
0.00354943
0.00356282
0.00357591
0.00358869
0.00360118
0.00361336
0.00362524
0.00363681
0.00364809
0.00365905
0.00366971
0.00368006
0.0036901
0.00369982
0.00370924
0.00371833
0.00372711
0.00373557
0.0037437
0.00375151
0.00375898
0.00376613
0.00377294
0.00377941
0.00378553
0.00379131
0.00379674
0.00380182
0.00380654
0.00381089
0.00381488
0.00381849
0.00382172
0.00382457
0.00382703
0.0038291
0.00383077
0.00383203
0.00383287
0.0038333
0.000937484
0.000588523
0.000480319
0.000491566
0.000564704
0.000668417
0.000785032
0.000904859
0.00102282
0.00113642
0.00124461
0.0013471
0.00144398
0.00153557
0.00162225
0.00170441
0.00178245
0.00185673
0.00192757
0.00199529
0.00206013
0.00212234
0.00218212
0.00223967
0.00229514
0.0023487
0.00240046
0.00245056
0.0024991
0.00254617
0.00259187
0.00263628
0.00267947
0.0027215
0.00276244
0.00280235
0.00284127
0.00287926
0.00291635
0.00295259
0.00298802
0.00302266
0.00305656
0.00308974
0.00312223
0.00315405
0.00318523
0.0032158
0.00324576
0.00327515
0.00330398
0.00333227
0.00336003
0.00338728
0.00341403
0.0034403
0.0034661
0.00349143
0.00351632
0.00354076
0.00356478
0.00358837
0.00361155
0.00363432
0.0036567
0.00367868
0.00370028
0.00372149
0.00374234
0.00376281
0.00378292
0.00380267
0.00382206
0.0038411
0.00385979
0.00387813
0.00389613
0.00391378
0.0039311
0.00394808
0.00396472
0.00398103
0.00399701
0.00401265
0.00402796
0.00404294
0.00405759
0.00407191
0.0040859
0.00409956
0.00411289
0.00412588
0.00413854
0.00415087
0.00416286
0.00417452
0.00418584
0.00419681
0.00420745
0.00421774
0.00422769
0.00423728
0.00424653
0.00425542
0.00426396
0.00427213
0.00427994
0.00428738
0.00429446
0.00430115
0.00430747
0.00431341
0.00431895
0.00432411
0.00432887
0.00433322
0.00433717
0.0043407
0.00434382
0.00434651
0.00434877
0.00435059
0.00435197
0.00435289
0.00435336
0.00111564
0.000681634
0.000552685
0.000573112
0.000668417
0.000797227
0.000937144
0.00107715
0.00121227
0.0013405
0.00146127
0.0015747
0.00168123
0.00178141
0.0018758
0.00196494
0.00204934
0.00212945
0.00220567
0.00227836
0.00234783
0.00241436
0.0024782
0.00253955
0.00259862
0.00265557
0.00271055
0.00276371
0.00281516
0.00286502
0.00291338
0.00296034
0.00300598
0.00305037
0.00309358
0.00313567
0.0031767
0.00321673
0.0032558
0.00329396
0.00333124
0.00336769
0.00340334
0.00343823
0.00347238
0.00350583
0.00353859
0.0035707
0.00360217
0.00363303
0.0036633
0.00369299
0.00372213
0.00375073
0.0037788
0.00380637
0.00383343
0.00386001
0.00388611
0.00391176
0.00393694
0.00396169
0.003986
0.00400989
0.00403335
0.00405641
0.00407906
0.00410131
0.00412316
0.00414463
0.00416572
0.00418643
0.00420677
0.00422673
0.00424633
0.00426557
0.00428444
0.00430296
0.00432112
0.00433893
0.00435638
0.00437349
0.00439024
0.00440665
0.00442271
0.00443842
0.00445379
0.00446881
0.00448348
0.00449781
0.00451179
0.00452542
0.0045387
0.00455163
0.00456421
0.00457644
0.00458831
0.00459983
0.00461099
0.00462178
0.00463222
0.00464229
0.00465199
0.00466132
0.00467027
0.00467885
0.00468704
0.00469485
0.00470227
0.0047093
0.00471593
0.00472216
0.00472798
0.00473339
0.00473838
0.00474295
0.00474709
0.0047508
0.00475407
0.00475689
0.00475926
0.00476118
0.00476262
0.00476359
0.00476408
0.00129677
0.000779504
0.000633692
0.000666594
0.000785032
0.000937144
0.00109668
0.00125233
0.00139988
0.00153812
0.00166713
0.00178747
0.00189988
0.00200514
0.00210398
0.00219705
0.00228496
0.00236821
0.00244727
0.00252254
0.00259437
0.00266307
0.00272889
0.00279209
0.00285287
0.00291142
0.0029679
0.00302246
0.00307523
0.00312634
0.00317588
0.00322396
0.00327067
0.00331608
0.00336027
0.0034033
0.00344524
0.00348613
0.00352604
0.00356501
0.00360309
0.0036403
0.0036767
0.00371231
0.00374717
0.0037813
0.00381474
0.00384751
0.00387963
0.00391113
0.00394202
0.00397233
0.00400207
0.00403127
0.00405992
0.00408806
0.0041157
0.00414284
0.00416949
0.00419568
0.00422141
0.00424669
0.00427153
0.00429593
0.00431991
0.00434347
0.00436663
0.00438937
0.00441172
0.00443367
0.00445524
0.00447642
0.00449723
0.00451765
0.00453771
0.00455739
0.00457671
0.00459566
0.00461426
0.00463249
0.00465036
0.00466788
0.00468504
0.00470185
0.0047183
0.0047344
0.00475015
0.00476554
0.00478058
0.00479527
0.0048096
0.00482358
0.0048372
0.00485046
0.00486336
0.0048759
0.00488808
0.0048999
0.00491135
0.00492242
0.00493313
0.00494346
0.00495342
0.00496299
0.00497219
0.00498099
0.0049894
0.00499742
0.00500504
0.00501225
0.00501906
0.00502546
0.00503143
0.00503699
0.00504212
0.00504681
0.00505106
0.00505487
0.00505823
0.00506113
0.00506357
0.00506553
0.00506701
0.00506801
0.00506851
0.00147567
0.000877628
0.00071771
0.000764401
0.000904859
0.00107715
0.00125233
0.0014196
0.00157583
0.0017207
0.0018549
0.0019794
0.0020952
0.00220327
0.00230445
0.0023995
0.00248909
0.00257378
0.00265408
0.00273041
0.00280314
0.00287262
0.00293912
0.00300291
0.00306419
0.00312317
0.00318003
0.00323491
0.00328796
0.00333931
0.00338907
0.00343733
0.0034842
0.00352975
0.00357406
0.0036172
0.00365923
0.00370021
0.0037402
0.00377924
0.00381738
0.00385466
0.00389112
0.00392679
0.00396171
0.0039959
0.0040294
0.00406224
0.00409442
0.00412599
0.00415695
0.00418733
0.00421715
0.00424643
0.00427517
0.0043034
0.00433112
0.00435836
0.00438512
0.00441141
0.00443725
0.00446264
0.00448759
0.00451212
0.00453622
0.00455991
0.00458319
0.00460607
0.00462856
0.00465065
0.00467236
0.00469369
0.00471464
0.00473521
0.00475542
0.00477525
0.00479473
0.00481384
0.00483259
0.00485098
0.00486901
0.00488669
0.00490401
0.00492098
0.0049376
0.00495386
0.00496976
0.00498532
0.00500052
0.00501536
0.00502985
0.00504398
0.00505775
0.00507117
0.00508422
0.00509691
0.00510923
0.00512119
0.00513278
0.00514399
0.00515483
0.0051653
0.00517538
0.00518508
0.00519439
0.0052033
0.00521183
0.00521995
0.00522767
0.00523499
0.00524189
0.00524837
0.00525443
0.00526006
0.00526526
0.00527002
0.00527433
0.00527819
0.0052816
0.00528454
0.00528701
0.005289
0.0052905
0.00529151
0.00529202
0.00164925
0.000973404
0.000801417
0.000862154
0.00102282
0.00121227
0.00139988
0.00157583
0.00173818
0.00188747
0.00202493
0.00215188
0.00226956
0.00237905
0.00248132
0.00257719
0.00266737
0.00275248
0.00283303
0.00290949
0.00298226
0.00305168
0.00311804
0.00318163
0.00324266
0.00330134
0.00335786
0.00341238
0.00346504
0.00351598
0.00356531
0.00361314
0.00365956
0.00370466
0.00374851
0.0037912
0.00383278
0.00387331
0.00391286
0.00395146
0.00398917
0.00402602
0.00406207
0.00409733
0.00413185
0.00416566
0.00419879
0.00423126
0.0042631
0.00429432
0.00432496
0.00435503
0.00438455
0.00441353
0.004442
0.00446996
0.00449743
0.00452443
0.00455096
0.00457704
0.00460267
0.00462786
0.00465263
0.00467699
0.00470093
0.00472447
0.00474761
0.00477036
0.00479272
0.0048147
0.00483631
0.00485754
0.0048784
0.0048989
0.00491903
0.00493881
0.00495823
0.00497729
0.004996
0.00501435
0.00503236
0.00505001
0.00506732
0.00508427
0.00510088
0.00511714
0.00513304
0.0051486
0.00516381
0.00517866
0.00519317
0.00520732
0.00522111
0.00523455
0.00524763
0.00526034
0.0052727
0.00528469
0.00529631
0.00530755
0.00531843
0.00532893
0.00533905
0.00534878
0.00535813
0.00536708
0.00537564
0.0053838
0.00539155
0.0053989
0.00540583
0.00541234
0.00541843
0.00542409
0.00542931
0.0054341
0.00543843
0.00544232
0.00544574
0.00544869
0.00545118
0.00545318
0.00545469
0.00545571
0.00545622
0.00181581
0.00106544
0.000882948
0.000957455
0.00113642
0.0013405
0.00153812
0.0017207
0.00188747
0.00203976
0.00217928
0.00230765
0.00242628
0.00253639
0.00263901
0.00273501
0.00282515
0.00291007
0.00299032
0.00306638
0.00313865
0.0032075
0.00327325
0.00333616
0.00339647
0.0034544
0.00351015
0.00356387
0.00361571
0.00366582
0.00371432
0.0037613
0.00380688
0.00385113
0.00389415
0.003936
0.00397676
0.00401647
0.00405521
0.00409301
0.00412994
0.00416603
0.00420131
0.00423584
0.00426964
0.00430274
0.00433518
0.00436698
0.00439816
0.00442874
0.00445876
0.00448823
0.00451716
0.00454558
0.00457349
0.00460093
0.00462788
0.00465438
0.00468043
0.00470605
0.00473123
0.004756
0.00478036
0.00480431
0.00482787
0.00485104
0.00487383
0.00489624
0.00491828
0.00493996
0.00496127
0.00498222
0.00500282
0.00502306
0.00504295
0.00506249
0.00508169
0.00510055
0.00511906
0.00513723
0.00515505
0.00517254
0.00518969
0.00520649
0.00522296
0.00523909
0.00525487
0.00527031
0.00528541
0.00530017
0.00531458
0.00532864
0.00534235
0.00535571
0.00536872
0.00538137
0.00539367
0.0054056
0.00541717
0.00542837
0.0054392
0.00544966
0.00545975
0.00546945
0.00547877
0.00548769
0.00549623
0.00550437
0.0055121
0.00551943
0.00552635
0.00553285
0.00553893
0.00554458
0.00554979
0.00555457
0.0055589
0.00556278
0.0055662
0.00556915
0.00557163
0.00557363
0.00557514
0.00557616
0.00557667
0.00197461
0.00115311
0.000961348
0.0010491
0.00124461
0.00146127
0.00166713
0.0018549
0.00202493
0.00217928
0.00232009
0.00244922
0.00256826
0.00267849
0.00278102
0.00287677
0.00296651
0.00305091
0.00313054
0.00320589
0.00327739
0.00334539
0.00341024
0.0034722
0.00353153
0.00358845
0.00364315
0.00369581
0.00374658
0.0037956
0.003843
0.00388889
0.00393336
0.00397652
0.00401844
0.00405921
0.00409888
0.00413753
0.00417521
0.00421197
0.00424787
0.00428294
0.00431723
0.00435078
0.00438362
0.00441578
0.00444729
0.00447819
0.00450848
0.00453821
0.00456738
0.00459603
0.00462416
0.0046518
0.00467895
0.00470565
0.00473189
0.00475769
0.00478306
0.00480802
0.00483257
0.00485672
0.00488048
0.00490386
0.00492686
0.0049495
0.00497177
0.00499368
0.00501523
0.00503644
0.0050573
0.00507782
0.005098
0.00511785
0.00513735
0.00515653
0.00517537
0.00519389
0.00521208
0.00522993
0.00524746
0.00526466
0.00528154
0.00529809
0.0053143
0.00533019
0.00534575
0.00536098
0.00537587
0.00539043
0.00540466
0.00541855
0.00543209
0.0054453
0.00545815
0.00547067
0.00548283
0.00549463
0.00550608
0.00551718
0.0055279
0.00553826
0.00554825
0.00555787
0.0055671
0.00557596
0.00558442
0.00559249
0.00560017
0.00560744
0.00561431
0.00562076
0.00562679
0.0056324
0.00563758
0.00564232
0.00564663
0.00565048
0.00565387
0.00565681
0.00565927
0.00566126
0.00566276
0.00566377
0.00566428
0.0021255
0.00123625
0.00103622
0.00113659
0.0013471
0.0015747
0.00178747
0.0019794
0.00215188
0.00230765
0.00244922
0.0025787
0.00269778
0.00280785
0.00291004
0.00300531
0.00309446
0.00317817
0.00325701
0.0033315
0.00340207
0.00346908
0.00353289
0.00359376
0.00365197
0.00370773
0.00376125
0.00381271
0.00386225
0.00391004
0.00395619
0.00400082
0.00404405
0.00408595
0.00412662
0.00416613
0.00420457
0.00424198
0.00427844
0.00431399
0.00434869
0.00438258
0.00441571
0.00444811
0.00447982
0.00451087
0.00454129
0.00457111
0.00460035
0.00462904
0.00465721
0.00468486
0.00471203
0.00473872
0.00476496
0.00479075
0.00481612
0.00484106
0.00486561
0.00488975
0.00491351
0.0049369
0.00495992
0.00498257
0.00500488
0.00502683
0.00504844
0.00506972
0.00509066
0.00511127
0.00513155
0.00515151
0.00517115
0.00519047
0.00520948
0.00522817
0.00524655
0.00526461
0.00528237
0.00529981
0.00531694
0.00533376
0.00535026
0.00536645
0.00538233
0.00539789
0.00541314
0.00542807
0.00544268
0.00545696
0.00547092
0.00548456
0.00549787
0.00551084
0.00552349
0.00553579
0.00554776
0.00555938
0.00557065
0.00558157
0.00559214
0.00560235
0.0056122
0.00562168
0.00563079
0.00563952
0.00564788
0.00565584
0.00566342
0.0056706
0.00567738
0.00568375
0.00568972
0.00569526
0.00570038
0.00570507
0.00570932
0.00571313
0.00571649
0.00571939
0.00572182
0.00572379
0.00572527
0.00572627
0.00572678
0.00226868
0.00131493
0.00110748
0.00121983
0.00144398
0.00168123
0.00189988
0.0020952
0.00226956
0.00242628
0.00256826
0.00269778
0.00281667
0.00292638
0.00302808
0.00312275
0.0032112
0.00329413
0.00337212
0.00344568
0.00351526
0.00358123
0.00364394
0.00370368
0.0037607
0.00381525
0.00386753
0.00391771
0.00396597
0.00401245
0.00405728
0.00410058
0.00414246
0.00418302
0.00422235
0.00426052
0.00429762
0.0043337
0.00436883
0.00440307
0.00443646
0.00446906
0.0045009
0.00453204
0.0045625
0.00459231
0.00462152
0.00465015
0.00467822
0.00470575
0.00473279
0.00475933
0.0047854
0.00481103
0.00483621
0.00486098
0.00488534
0.00490931
0.0049329
0.00495611
0.00497896
0.00500146
0.00502362
0.00504543
0.00506692
0.00508807
0.00510891
0.00512943
0.00514965
0.00516955
0.00518915
0.00520844
0.00522744
0.00524614
0.00526454
0.00528265
0.00530046
0.00531798
0.00533521
0.00535215
0.00536879
0.00538513
0.00540118
0.00541694
0.00543239
0.00544755
0.00546241
0.00547696
0.00549121
0.00550515
0.00551879
0.00553211
0.00554511
0.0055578
0.00557016
0.0055822
0.00559392
0.0056053
0.00561634
0.00562705
0.00563741
0.00564742
0.00565708
0.00566639
0.00567533
0.0056839
0.00569211
0.00569994
0.00570738
0.00571444
0.00572111
0.00572738
0.00573324
0.0057387
0.00574373
0.00574835
0.00575253
0.00575628
0.00575959
0.00576245
0.00576485
0.00576678
0.00576824
0.00576923
0.00576972
0.00240454
0.00138939
0.00117523
0.00129894
0.00153557
0.00178141
0.00200514
0.00220327
0.00237905
0.00253639
0.00267849
0.00280785
0.00292638
0.00303559
0.0031367
0.0032307
0.0033184
0.00340051
0.00347762
0.00355024
0.00361883
0.00368375
0.00374536
0.00380396
0.0038598
0.00391313
0.00396416
0.00401306
0.00406002
0.00410517
0.00414866
0.0041906
0.00423111
0.0042703
0.00430824
0.00434503
0.00438073
0.00441543
0.00444918
0.00448204
0.00451406
0.0045453
0.0045758
0.00460559
0.00463472
0.00466323
0.00469114
0.00471849
0.00474529
0.00477159
0.00479739
0.00482273
0.00484762
0.00487208
0.00489613
0.00491977
0.00494304
0.00496593
0.00498846
0.00501064
0.00503249
0.005054
0.00507519
0.00509607
0.00511664
0.00513691
0.00515687
0.00517655
0.00519594
0.00521504
0.00523386
0.0052524
0.00527066
0.00528865
0.00530636
0.0053238
0.00534097
0.00535786
0.00537448
0.00539083
0.0054069
0.0054227
0.00543822
0.00545346
0.00546843
0.00548311
0.00549751
0.00551162
0.00552545
0.00553898
0.00555223
0.00556517
0.00557782
0.00559016
0.00560219
0.00561391
0.00562532
0.00563642
0.00564718
0.00565763
0.00566774
0.00567751
0.00568695
0.00569604
0.00570477
0.00571316
0.00572118
0.00572884
0.00573613
0.00574304
0.00574956
0.0057557
0.00576144
0.00576679
0.00577172
0.00577625
0.00578035
0.00578402
0.00578727
0.00579007
0.00579242
0.00579432
0.00579575
0.00579672
0.00579721
0.00253353
0.00145991
0.00123966
0.00137413
0.00162225
0.0018758
0.00210398
0.00230445
0.00248132
0.00263901
0.00278102
0.00291004
0.00302808
0.0031367
0.00323715
0.00333042
0.00341734
0.00349863
0.00357486
0.00364656
0.00371416
0.00377807
0.00383861
0.0038961
0.00395079
0.00400293
0.00405273
0.00410038
0.00414605
0.0041899
0.00423206
0.00427266
0.0043118
0.00434961
0.00438617
0.00442156
0.00445587
0.00448916
0.00452151
0.00455296
0.00458359
0.00461343
0.00464254
0.00467095
0.00469872
0.00472586
0.00475243
0.00477844
0.00480393
0.00482892
0.00485344
0.00487751
0.00490114
0.00492437
0.0049472
0.00496966
0.00499175
0.00501349
0.00503489
0.00505597
0.00507672
0.00509718
0.00511733
0.00513719
0.00515676
0.00517605
0.00519507
0.00521382
0.00523231
0.00525053
0.0052685
0.0052862
0.00530365
0.00532085
0.0053378
0.00535449
0.00537094
0.00538713
0.00540307
0.00541876
0.00543419
0.00544938
0.0054643
0.00547897
0.00549337
0.00550752
0.0055214
0.00553501
0.00554836
0.00556143
0.00557422
0.00558674
0.00559897
0.00561091
0.00562257
0.00563393
0.00564499
0.00565575
0.0056662
0.00567633
0.00568615
0.00569565
0.00570482
0.00571366
0.00572216
0.00573032
0.00573813
0.00574559
0.00575269
0.00575942
0.00576579
0.00577177
0.00577737
0.00578259
0.0057874
0.00579182
0.00579582
0.00579941
0.00580258
0.00580531
0.00580761
0.00580946
0.00581087
0.00581181
0.00581228
0.00265617
0.00152682
0.001301
0.00144569
0.00170441
0.00196494
0.00219705
0.0023995
0.00257719
0.00273501
0.00287677
0.00300531
0.00312275
0.0032307
0.00333042
0.00342293
0.00350906
0.00358952
0.00366488
0.00373568
0.00380234
0.00386527
0.00392479
0.00398121
0.0040348
0.0040858
0.00413443
0.00418087
0.0042253
0.00426788
0.00430875
0.00434803
0.00438585
0.00442231
0.0044575
0.00449152
0.00452444
0.00455634
0.00458729
0.00461734
0.00464656
0.00467501
0.00470271
0.00472973
0.00475611
0.00478187
0.00480706
0.00483171
0.00485585
0.0048795
0.00490269
0.00492545
0.00494779
0.00496974
0.00499131
0.00501251
0.00503338
0.00505391
0.00507413
0.00509404
0.00511365
0.00513298
0.00515202
0.0051708
0.00518932
0.00520757
0.00522558
0.00524334
0.00526085
0.00527813
0.00529517
0.00531198
0.00532855
0.0053449
0.00536101
0.0053769
0.00539255
0.00540798
0.00542318
0.00543815
0.00545288
0.00546739
0.00548165
0.00549568
0.00550948
0.00552303
0.00553633
0.00554939
0.0055622
0.00557475
0.00558705
0.00559909
0.00561086
0.00562236
0.00563359
0.00564454
0.0056552
0.00566559
0.00567567
0.00568547
0.00569496
0.00570414
0.00571302
0.00572157
0.00572981
0.00573771
0.00574528
0.00575251
0.0057594
0.00576593
0.00577211
0.00577792
0.00578336
0.00578842
0.0057931
0.00579739
0.00580128
0.00580477
0.00580785
0.00581051
0.00581275
0.00581455
0.00581592
0.00581683
0.00581729
0.00277294
0.00159039
0.0013595
0.00151389
0.00178245
0.00204934
0.00228496
0.00248909
0.00266737
0.00282515
0.00296651
0.00309446
0.0032112
0.0033184
0.00341734
0.00350906
0.00359438
0.00367401
0.00374853
0.00381845
0.00388421
0.00394619
0.00400474
0.00406015
0.0041127
0.00416262
0.00421013
0.00425542
0.00429867
0.00434004
0.00437968
0.0044177
0.00445423
0.00448938
0.00452325
0.00455593
0.0045875
0.00461804
0.00464761
0.00467629
0.00470412
0.00473117
0.00475749
0.00478312
0.00480811
0.00483249
0.0048563
0.00487957
0.00490234
0.00492464
0.00494648
0.0049679
0.00498892
0.00500956
0.00502983
0.00504976
0.00506937
0.00508865
0.00510764
0.00512634
0.00514476
0.00516291
0.00518081
0.00519846
0.00521586
0.00523303
0.00524997
0.00526668
0.00528317
0.00529945
0.00531551
0.00533136
0.005347
0.00536243
0.00537766
0.00539268
0.00540749
0.0054221
0.0054365
0.00545069
0.00546467
0.00547844
0.005492
0.00550534
0.00551847
0.00553137
0.00554405
0.0055565
0.00556873
0.00558072
0.00559247
0.00560398
0.00561524
0.00562625
0.00563701
0.00564751
0.00565775
0.00566772
0.00567741
0.00568682
0.00569595
0.00570479
0.00571333
0.00572157
0.0057295
0.00573712
0.00574443
0.0057514
0.00575805
0.00576436
0.00577033
0.00577594
0.0057812
0.0057861
0.00579063
0.00579478
0.00579854
0.00580192
0.0058049
0.00580748
0.00580964
0.00581139
0.00581271
0.0058136
0.00581405
0.00288431
0.00165093
0.00141537
0.001579
0.00185673
0.00212945
0.00236821
0.00257378
0.00275248
0.00291007
0.00305091
0.00317817
0.00329413
0.00340051
0.00349863
0.00358952
0.00367401
0.00375281
0.00382649
0.00389555
0.00396043
0.00402152
0.00407914
0.0041336
0.00418516
0.00423406
0.00428052
0.00432473
0.00436687
0.0044071
0.00444555
0.00448238
0.00451768
0.00455159
0.00458419
0.00461557
0.00464584
0.00467505
0.00470329
0.00473062
0.00475711
0.0047828
0.00480775
0.00483201
0.00485562
0.00487863
0.00490107
0.00492297
0.00494438
0.00496532
0.00498581
0.00500589
0.00502557
0.00504489
0.00506385
0.00508248
0.0051008
0.00511881
0.00513654
0.005154
0.0051712
0.00518815
0.00520486
0.00522134
0.00523759
0.00525363
0.00526946
0.00528508
0.00530051
0.00531574
0.00533077
0.00534562
0.00536028
0.00537475
0.00538904
0.00540314
0.00541706
0.0054308
0.00544435
0.00545772
0.00547089
0.00548388
0.00549668
0.00550929
0.0055217
0.00553391
0.00554591
0.00555772
0.00556931
0.00558069
0.00559185
0.00560279
0.00561351
0.005624
0.00563425
0.00564426
0.00565402
0.00566354
0.00567279
0.00568179
0.00569052
0.00569898
0.00570716
0.00571506
0.00572267
0.00572998
0.00573698
0.00574368
0.00575007
0.00575613
0.00576187
0.00576727
0.00577233
0.00577704
0.0057814
0.00578539
0.00578902
0.00579228
0.00579515
0.00579763
0.00579972
0.0058014
0.00580268
0.00580354
0.00580397
0.00299071
0.00170868
0.00146884
0.00164128
0.00192757
0.00220567
0.00244727
0.00265408
0.00283303
0.00299032
0.00313054
0.00325701
0.00337212
0.00347762
0.00357486
0.00366488
0.00374853
0.00382649
0.00389933
0.00396756
0.0040316
0.00409182
0.00414856
0.00420212
0.00425275
0.00430069
0.00434616
0.00438935
0.00443044
0.00446959
0.00450694
0.00454263
0.00457677
0.00460949
0.00464088
0.00467104
0.00470005
0.004728
0.00475495
0.00478098
0.00480616
0.00483053
0.00485415
0.00487707
0.00489934
0.004921
0.00494209
0.00496264
0.0049827
0.00500229
0.00502144
0.00504018
0.00505853
0.00507652
0.00509417
0.00511149
0.00512851
0.00514524
0.0051617
0.0051779
0.00519386
0.00520958
0.00522507
0.00524036
0.00525543
0.00527031
0.005285
0.0052995
0.00531382
0.00532797
0.00534194
0.00535574
0.00536938
0.00538285
0.00539616
0.00540931
0.0054223
0.00543512
0.00544778
0.00546027
0.00547261
0.00548477
0.00549677
0.00550859
0.00552024
0.00553172
0.00554301
0.00555412
0.00556504
0.00557577
0.0055863
0.00559664
0.00560677
0.00561669
0.00562639
0.00563587
0.00564513
0.00565416
0.00566295
0.0056715
0.00567981
0.00568786
0.00569564
0.00570317
0.00571042
0.00571739
0.00572408
0.00573048
0.00573658
0.00574237
0.00574786
0.00575302
0.00575787
0.00576238
0.00576655
0.00577038
0.00577386
0.00577698
0.00577973
0.00578212
0.00578412
0.00578573
0.00578696
0.00578778
0.00578819
0.00309251
0.00176388
0.00152009
0.00170095
0.00199529
0.00227836
0.00252254
0.00273041
0.00290949
0.00306638
0.00320589
0.0033315
0.00344568
0.00355024
0.00364656
0.00373568
0.00381845
0.00389555
0.00396756
0.00403496
0.00409817
0.00415756
0.00421346
0.00426615
0.00431591
0.00436295
0.00440749
0.00444973
0.00448983
0.00452797
0.00456428
0.0045989
0.00463195
0.00466354
0.00469379
0.00472278
0.0047506
0.00477734
0.00480306
0.00482785
0.00485176
0.00487485
0.00489719
0.00491881
0.00493978
0.00496012
0.0049799
0.00499913
0.00501786
0.00503613
0.00505395
0.00507137
0.0050884
0.00510507
0.00512141
0.00513743
0.00515315
0.0051686
0.00518378
0.00519871
0.00521341
0.00522789
0.00524216
0.00525623
0.00527011
0.00528381
0.00529733
0.00531068
0.00532387
0.00533691
0.00534979
0.00536252
0.0053751
0.00538754
0.00539984
0.00541199
0.00542401
0.00543588
0.00544761
0.0054592
0.00547065
0.00548195
0.0054931
0.00550411
0.00551496
0.00552566
0.0055362
0.00554658
0.00555679
0.00556683
0.0055767
0.00558639
0.0055959
0.00560521
0.00561434
0.00562326
0.00563198
0.00564049
0.00564878
0.00565686
0.0056647
0.00567231
0.00567968
0.0056868
0.00569367
0.00570028
0.00570663
0.0057127
0.00571849
0.005724
0.00572921
0.00573413
0.00573874
0.00574303
0.00574701
0.00575066
0.00575397
0.00575695
0.00575957
0.00576184
0.00576375
0.00576529
0.00576646
0.00576724
0.00576764
0.00319008
0.00181674
0.00156931
0.00175822
0.00206013
0.00234783
0.00259437
0.00280314
0.00298226
0.00313865
0.00327739
0.00340207
0.00351526
0.00361883
0.00371416
0.00380234
0.00388421
0.00396043
0.0040316
0.00409817
0.00416056
0.00421915
0.00427423
0.00432611
0.00437502
0.00442121
0.00446488
0.00450622
0.0045454
0.00458259
0.00461792
0.00465154
0.00468356
0.0047141
0.00474327
0.00477115
0.00479785
0.00482344
0.00484799
0.00487159
0.00489429
0.00491617
0.00493726
0.00495764
0.00497734
0.00499642
0.00501491
0.00503286
0.0050503
0.00506727
0.00508379
0.00509991
0.00511564
0.00513101
0.00514605
0.00516078
0.00517522
0.00518938
0.00520329
0.00521696
0.0052304
0.00524364
0.00525667
0.00526952
0.00528219
0.00529469
0.00530703
0.00531922
0.00533126
0.00534316
0.00535493
0.00536656
0.00537806
0.00538944
0.0054007
0.00541183
0.00542285
0.00543374
0.00544451
0.00545516
0.00546569
0.0054761
0.00548638
0.00549653
0.00550655
0.00551644
0.00552619
0.00553581
0.00554527
0.00555459
0.00556376
0.00557277
0.00558162
0.00559031
0.00559881
0.00560715
0.0056153
0.00562326
0.00563102
0.00563858
0.00564594
0.00565308
0.00566001
0.0056667
0.00567317
0.00567939
0.00568537
0.00569109
0.00569656
0.00570176
0.00570668
0.00571133
0.00571569
0.00571975
0.00572351
0.00572697
0.0057301
0.00573292
0.00573541
0.00573756
0.00573937
0.00574084
0.00574194
0.00574269
0.00574306
0.00328373
0.00186745
0.00161665
0.00181328
0.00212234
0.00241436
0.00266307
0.00287262
0.00305168
0.0032075
0.00334539
0.00346908
0.00358123
0.00368375
0.00377807
0.00386527
0.00394619
0.00402152
0.00409182
0.00415756
0.00421915
0.00427693
0.00433123
0.00438231
0.00443042
0.0044758
0.00451864
0.00455914
0.00459745
0.00463375
0.00466817
0.00470085
0.00473191
0.00476146
0.00478961
0.00481645
0.00484208
0.00486658
0.00489003
0.0049125
0.00493406
0.00495476
0.00497468
0.00499385