/*--------------------------------*- C++ -*----------------------------------*\
| =========                 |                                                 |
| \\      /  F ield         | OpenFOAM: The Open Source CFD Toolbox           |
|  \\    /   O peration     | Version:  4.x                                   |
|   \\  /    A nd           | Web:      www.OpenFOAM.org                      |
|    \\/     M anipulation  |                                                 |
\*---------------------------------------------------------------------------*/
FoamFile
{
    version     2.0;
    format      ascii;
    class       volScalarField;
    location    "98.07";
    object      nut;
}
// * * * * * * * * * * * * * * * * * * * * * * * * * * * * * * * * * * * * * //

dimensions      [0 2 -1 0 0 0 0];

internalField   nonuniform List<scalar> 
15625
(
1.34248e-05
1.41824e-05
1.55725e-05
1.7276e-05
1.90578e-05
2.07899e-05
2.24141e-05
2.39104e-05
2.52775e-05
2.65232e-05
2.76587e-05
2.8696e-05
2.96468e-05
3.05216e-05
3.13295e-05
3.20789e-05
3.27764e-05
3.34281e-05
3.40391e-05
3.46136e-05
3.51554e-05
3.56677e-05
3.61533e-05
3.66145e-05
3.70535e-05
3.74722e-05
3.78721e-05
3.82547e-05
3.86213e-05
3.89731e-05
3.9311e-05
3.96361e-05
3.9949e-05
4.02507e-05
4.05417e-05
4.08227e-05
4.10943e-05
4.1357e-05
4.16113e-05
4.18576e-05
4.20963e-05
4.23278e-05
4.25525e-05
4.27707e-05
4.29826e-05
4.31885e-05
4.33888e-05
4.35836e-05
4.37732e-05
4.39578e-05
4.41376e-05
4.43128e-05
4.44835e-05
4.46499e-05
4.48121e-05
4.49704e-05
4.51248e-05
4.52755e-05
4.54225e-05
4.55661e-05
4.57063e-05
4.58432e-05
4.59769e-05
4.61074e-05
4.6235e-05
4.63596e-05
4.64814e-05
4.66004e-05
4.67166e-05
4.68302e-05
4.69412e-05
4.70496e-05
4.71556e-05
4.72591e-05
4.73602e-05
4.7459e-05
4.75555e-05
4.76498e-05
4.77418e-05
4.78316e-05
4.79193e-05
4.80049e-05
4.80884e-05
4.81698e-05
4.82492e-05
4.83266e-05
4.8402e-05
4.84754e-05
4.85469e-05
4.86165e-05
4.86841e-05
4.87499e-05
4.88137e-05
4.88757e-05
4.89358e-05
4.89941e-05
4.90505e-05
4.91051e-05
4.91578e-05
4.92087e-05
4.92578e-05
4.9305e-05
4.93504e-05
4.9394e-05
4.94357e-05
4.94756e-05
4.95137e-05
4.95498e-05
4.95842e-05
4.96166e-05
4.96472e-05
4.96759e-05
4.97026e-05
4.97275e-05
4.97504e-05
4.97713e-05
4.97903e-05
4.98073e-05
4.98222e-05
4.98351e-05
4.98459e-05
4.98546e-05
4.98612e-05
4.98656e-05
4.98679e-05
1.41824e-05
1.4184e-05
1.47624e-05
1.56574e-05
1.68365e-05
1.81745e-05
1.95492e-05
2.0884e-05
2.21405e-05
2.3305e-05
2.43763e-05
2.536e-05
2.62642e-05
2.70974e-05
2.78679e-05
2.85833e-05
2.92501e-05
2.9874e-05
3.04598e-05
3.10118e-05
3.15335e-05
3.2028e-05
3.24979e-05
3.29456e-05
3.3373e-05
3.37819e-05
3.41737e-05
3.45499e-05
3.49116e-05
3.526e-05
3.55959e-05
3.59202e-05
3.62336e-05
3.65369e-05
3.68307e-05
3.71156e-05
3.7392e-05
3.76604e-05
3.79214e-05
3.81751e-05
3.84221e-05
3.86627e-05
3.88971e-05
3.91256e-05
3.93486e-05
3.95662e-05
3.97787e-05
3.99863e-05
4.01892e-05
4.03876e-05
4.05815e-05
4.07713e-05
4.0957e-05
4.11388e-05
4.13167e-05
4.1491e-05
4.16618e-05
4.18291e-05
4.1993e-05
4.21536e-05
4.23111e-05
4.24655e-05
4.26168e-05
4.27652e-05
4.29107e-05
4.30534e-05
4.31933e-05
4.33305e-05
4.3465e-05
4.35969e-05
4.37263e-05
4.38531e-05
4.39774e-05
4.40993e-05
4.42188e-05
4.43359e-05
4.44506e-05
4.4563e-05
4.46731e-05
4.47809e-05
4.48864e-05
4.49897e-05
4.50907e-05
4.51896e-05
4.52862e-05
4.53806e-05
4.54729e-05
4.5563e-05
4.56509e-05
4.57367e-05
4.58203e-05
4.59017e-05
4.5981e-05
4.60581e-05
4.61331e-05
4.62059e-05
4.62765e-05
4.6345e-05
4.64113e-05
4.64754e-05
4.65373e-05
4.6597e-05
4.66545e-05
4.67097e-05
4.67627e-05
4.68134e-05
4.68619e-05
4.6908e-05
4.69519e-05
4.69934e-05
4.70325e-05
4.70692e-05
4.71036e-05
4.71354e-05
4.71649e-05
4.71918e-05
4.72162e-05
4.7238e-05
4.72573e-05
4.72739e-05
4.72879e-05
4.72991e-05
4.73076e-05
4.73133e-05
4.73162e-05
1.55725e-05
1.47624e-05
1.58971e-05
1.77403e-05
1.98684e-05
2.21896e-05
2.45947e-05
2.69741e-05
2.92535e-05
3.13951e-05
3.33862e-05
3.52292e-05
3.69336e-05
3.85121e-05
3.99778e-05
4.13431e-05
4.26195e-05
4.38167e-05
4.49437e-05
4.60078e-05
4.70156e-05
4.79728e-05
4.88842e-05
4.97541e-05
5.05861e-05
5.13836e-05
5.21494e-05
5.2886e-05
5.35958e-05
5.42806e-05
5.49423e-05
5.55824e-05
5.62025e-05
5.68038e-05
5.73876e-05
5.79547e-05
5.85064e-05
5.90433e-05
5.95664e-05
6.00764e-05
6.05739e-05
6.10596e-05
6.1534e-05
6.19977e-05
6.24511e-05
6.28947e-05
6.3329e-05
6.37542e-05
6.41708e-05
6.4579e-05
6.49792e-05
6.53717e-05
6.57567e-05
6.61345e-05
6.65053e-05
6.68693e-05
6.72266e-05
6.75776e-05
6.79223e-05
6.82609e-05
6.85935e-05
6.89203e-05
6.92415e-05
6.9557e-05
6.98672e-05
7.01719e-05
7.04713e-05
7.07656e-05
7.10548e-05
7.13389e-05
7.16181e-05
7.18923e-05
7.21617e-05
7.24263e-05
7.26861e-05
7.29412e-05
7.31916e-05
7.34374e-05
7.36785e-05
7.3915e-05
7.4147e-05
7.43743e-05
7.45972e-05
7.48155e-05
7.50292e-05
7.52384e-05
7.54431e-05
7.56432e-05
7.58388e-05
7.60299e-05
7.62163e-05
7.63982e-05
7.65755e-05
7.67482e-05
7.69163e-05
7.70797e-05
7.72384e-05
7.73924e-05
7.75417e-05
7.76862e-05
7.78258e-05
7.79606e-05
7.80905e-05
7.82155e-05
7.83355e-05
7.84504e-05
7.85603e-05
7.8665e-05
7.87646e-05
7.88588e-05
7.89478e-05
7.90314e-05
7.91095e-05
7.91821e-05
7.92491e-05
7.93105e-05
7.93662e-05
7.9416e-05
7.94599e-05
7.94978e-05
7.95297e-05
7.95553e-05
7.95747e-05
7.95878e-05
7.95944e-05
1.7276e-05
1.56574e-05
1.77403e-05
2.23762e-05
2.81323e-05
3.41358e-05
4.00294e-05
4.56429e-05
5.08856e-05
5.57219e-05
6.0154e-05
6.42057e-05
6.79109e-05
7.13064e-05
7.44275e-05
7.73068e-05
7.99729e-05
8.24509e-05
8.47625e-05
8.69265e-05
8.89589e-05
9.08736e-05
9.26827e-05
9.43966e-05
9.60244e-05
9.75741e-05
9.90527e-05
0.000100466
0.000101821
0.00010312
0.000104369
0.000105572
0.000106731
0.000107851
0.000108934
0.000109981
0.000110997
0.000111982
0.000112939
0.000113869
0.000114774
0.000115655
0.000116514
0.000117352
0.000118169
0.000118967
0.000119747
0.00012051
0.000121256
0.000121987
0.000122702
0.000123402
0.000124089
0.000124762
0.000125422
0.00012607
0.000126705
0.000127329
0.000127941
0.000128542
0.000129133
0.000129713
0.000130282
0.000130842
0.000131392
0.000131932
0.000132464
0.000132985
0.000133498
0.000134002
0.000134497
0.000134984
0.000135462
0.000135931
0.000136392
0.000136845
0.000137289
0.000137726
0.000138154
0.000138574
0.000138986
0.00013939
0.000139787
0.000140175
0.000140555
0.000140927
0.000141291
0.000141648
0.000141996
0.000142336
0.000142669
0.000142993
0.000143309
0.000143617
0.000143917
0.000144208
0.000144491
0.000144766
0.000145033
0.000145291
0.00014554
0.000145781
0.000146013
0.000146237
0.000146451
0.000146657
0.000146853
0.00014704
0.000147218
0.000147387
0.000147546
0.000147696
0.000147836
0.000147966
0.000148086
0.000148196
0.000148295
0.000148385
0.000148463
0.000148531
0.000148588
0.000148634
0.000148669
0.000148693
0.000148704
1.90578e-05
1.68365e-05
1.98684e-05
2.81323e-05
4.00258e-05
5.30812e-05
6.57431e-05
7.74171e-05
8.79598e-05
9.74009e-05
0.000105834
0.000113372
0.000120127
0.000126203
0.000131691
0.000136671
0.00014121
0.000145365
0.000149186
0.000152712
0.00015598
0.00015902
0.000161856
0.000164512
0.000167006
0.000169356
0.000171574
0.000173675
0.000175669
0.000177566
0.000179375
0.000181102
0.000182757
0.000184343
0.000185867
0.000187333
0.000188746
0.00019011
0.000191429
0.000192705
0.000193941
0.000195141
0.000196306
0.000197438
0.000198541
0.000199614
0.000200661
0.000201683
0.00020268
0.000203655
0.000204608
0.00020554
0.000206453
0.000207347
0.000208223
0.000209082
0.000209925
0.000210752
0.000211563
0.00021236
0.000213142
0.000213911
0.000214666
0.000215408
0.000216137
0.000216854
0.000217559
0.000218252
0.000218933
0.000219603
0.000220262
0.000220909
0.000221546
0.000222172
0.000222787
0.000223391
0.000223985
0.000224568
0.000225141
0.000225704
0.000226256
0.000226798
0.00022733
0.000227851
0.000228362
0.000228863
0.000229354
0.000229834
0.000230304
0.000230763
0.000231212
0.00023165
0.000232078
0.000232495
0.000232901
0.000233296
0.00023368
0.000234053
0.000234415
0.000234766
0.000235105
0.000235433
0.000235749
0.000236054
0.000236346
0.000236626
0.000236894
0.00023715
0.000237393
0.000237624
0.000237842
0.000238046
0.000238237
0.000238415
0.00023858
0.00023873
0.000238867
0.000238989
0.000239097
0.00023919
0.000239268
0.000239331
0.000239379
0.000239411
0.000239427
2.07899e-05
1.81745e-05
2.21896e-05
3.41358e-05
5.30812e-05
7.50973e-05
9.67594e-05
0.000116551
0.000134119
0.00014956
0.00016311
0.000175023
0.000185533
0.000194847
0.000203139
0.000210556
0.000217223
0.000223242
0.0002287
0.000233671
0.000238217
0.000242389
0.000246232
0.000249786
0.000253082
0.000256149
0.000259013
0.000261694
0.000264211
0.000266582
0.000268819
0.000270936
0.000272945
0.000274855
0.000276675
0.000278413
0.000280076
0.000281671
0.000283204
0.000284678
0.000286099
0.000287472
0.000288799
0.000290084
0.000291331
0.000292541
0.000293718
0.000294863
0.000295979
0.000297068
0.000298131
0.00029917
0.000300187
0.000301181
0.000302156
0.000303111
0.000304048
0.000304967
0.00030587
0.000306756
0.000307628
0.000308484
0.000309327
0.000310155
0.000310971
0.000311773
0.000312563
0.000313341
0.000314106
0.00031486
0.000315602
0.000316333
0.000317053
0.000317761
0.000318459
0.000319145
0.000319821
0.000320485
0.00032114
0.000321783
0.000322415
0.000323037
0.000323648
0.000324248
0.000324837
0.000325415
0.000325982
0.000326538
0.000327082
0.000327615
0.000328137
0.000328647
0.000329146
0.000329633
0.000330107
0.00033057
0.00033102
0.000331458
0.000331883
0.000332295
0.000332695
0.000333081
0.000333454
0.000333813
0.000334159
0.000334491
0.000334808
0.000335111
0.000335399
0.000335673
0.000335931
0.000336175
0.000336402
0.000336614
0.000336809
0.000336989
0.000337151
0.000337297
0.000337425
0.000337536
0.00033763
0.000337705
0.000337762
0.0003378
0.000337819
2.24141e-05
1.95492e-05
2.45947e-05
4.00294e-05
6.57431e-05
9.67594e-05
0.000127879
0.000156495
0.000181878
0.000204097
0.000223486
0.000240423
0.000255261
0.000268311
0.000279835
0.000290055
0.000299155
0.000307293
0.000314597
0.000321178
0.00032713
0.000332531
0.000337449
0.000341943
0.000346062
0.000349849
0.000353341
0.000356572
0.000359569
0.000362357
0.000364958
0.000367392
0.000369674
0.000371821
0.000373846
0.00037576
0.000377574
0.000379298
0.000380939
0.000382506
0.000384004
0.000385441
0.000386821
0.000388149
0.000389431
0.000390669
0.000391867
0.000393029
0.000394157
0.000395255
0.000396324
0.000397366
0.000398384
0.000399379
0.000400353
0.000401308
0.000402243
0.000403162
0.000404064
0.000404951
0.000405823
0.000406681
0.000407527
0.00040836
0.00040918
0.000409989
0.000410787
0.000411574
0.000412351
0.000413117
0.000413873
0.000414619
0.000415356
0.000416083
0.0004168
0.000417507
0.000418205
0.000418894
0.000419573
0.000420242
0.000420902
0.000421552
0.000422192
0.000422822
0.000423443
0.000424052
0.000424652
0.000425241
0.000425819
0.000426387
0.000426943
0.000427488
0.000428022
0.000428544
0.000429054
0.000429552
0.000430038
0.00043051
0.00043097
0.000431417
0.000431851
0.000432271
0.000432676
0.000433068
0.000433445
0.000433807
0.000434155
0.000434486
0.000434803
0.000435103
0.000435387
0.000435654
0.000435904
0.000436137
0.000436353
0.00043655
0.00043673
0.000436891
0.000437033
0.000437155
0.000437259
0.000437342
0.000437405
0.000437447
0.000437468
2.39104e-05
2.0884e-05
2.69741e-05
4.56429e-05
7.74171e-05
0.000116551
0.000156495
0.000193687
0.000226949
0.000256216
0.000281829
0.00030423
0.000323855
0.000341094
0.000356282
0.000369708
0.000381614
0.000392205
0.000401657
0.000410117
0.000417711
0.000424547
0.000430717
0.000436301
0.000441368
0.000445978
0.000450182
0.000454027
0.000457551
0.00046079
0.000463774
0.000466531
0.000469083
0.000471453
0.00047366
0.000475719
0.000477646
0.000479454
0.000481155
0.00048276
0.000484277
0.000485717
0.000487085
0.000488389
0.000489636
0.00049083
0.000491978
0.000493082
0.000494148
0.000495178
0.000496177
0.000497147
0.000498091
0.00049901
0.000499909
0.000500787
0.000501647
0.000502491
0.00050332
0.000504135
0.000504936
0.000505726
0.000506505
0.000507274
0.000508033
0.000508783
0.000509525
0.000510258
0.000510983
0.000511701
0.000512412
0.000513115
0.000513811
0.000514501
0.000515184
0.000515859
0.000516528
0.00051719
0.000517845
0.000518493
0.000519134
0.000519767
0.000520392
0.00052101
0.00052162
0.000522222
0.000522815
0.000523399
0.000523975
0.000524541
0.000525098
0.000525645
0.000526182
0.000526709
0.000527224
0.000527729
0.000528222
0.000528704
0.000529173
0.00052963
0.000530074
0.000530505
0.000530922
0.000531326
0.000531715
0.000532089
0.000532449
0.000532793
0.000533121
0.000533433
0.000533728
0.000534007
0.000534268
0.000534511
0.000534737
0.000534943
0.000535131
0.0005353
0.000535449
0.000535577
0.000535686
0.000535773
0.000535839
0.000535883
0.000535906
2.52775e-05
2.21405e-05
2.92535e-05
5.08856e-05
8.79598e-05
0.000134119
0.000181878
0.000226949
0.000267727
0.000303946
0.000335876
0.000363961
0.000388669
0.000410437
0.000429652
0.00044665
0.000461723
0.000475117
0.000487046
0.000497692
0.000507214
0.000515746
0.000523406
0.000530296
0.000536504
0.000542109
0.000547177
0.000551768
0.000555934
0.000559722
0.000563172
0.000566319
0.000569197
0.000571833
0.000574253
0.000576479
0.000578532
0.000580428
0.000582186
0.000583818
0.000585337
0.000586757
0.000588086
0.000589334
0.000590509
0.00059162
0.000592673
0.000593674
0.000594629
0.000595542
0.000596419
0.000597263
0.000598077
0.000598866
0.000599631
0.000600376
0.000601103
0.000601814
0.000602511
0.000603195
0.000603868
0.000604532
0.000605187
0.000605834
0.000606475
0.00060711
0.000607739
0.000608364
0.000608984
0.0006096
0.000610213
0.000610822
0.000611428
0.00061203
0.00061263
0.000613226
0.000613819
0.000614409
0.000614995
0.000615577
0.000616156
0.000616731
0.000617302
0.000617868
0.000618429
0.000618985
0.000619536
0.000620081
0.000620619
0.000621151
0.000621677
0.000622194
0.000622704
0.000623206
0.0006237
0.000624184
0.000624659
0.000625124
0.000625578
0.000626022
0.000626454
0.000626875
0.000627283
0.000627679
0.000628062
0.00062843
0.000628785
0.000629126
0.000629451
0.000629761
0.000630054
0.000630332
0.000630592
0.000630835
0.00063106
0.000631267
0.000631455
0.000631624
0.000631773
0.000631903
0.000632011
0.000632099
0.000632166
0.00063221
0.000632233
2.65232e-05
2.3305e-05
3.13951e-05
5.57219e-05
9.74009e-05
0.00014956
0.000204097
0.000256216
0.000303946
0.000346796
0.000384919
0.000418712
0.000448633
0.000475135
0.000498629
0.000519485
0.000538023
0.000554526
0.000569236
0.000582367
0.000594103
0.000604605
0.000614013
0.00062245
0.000630024
0.00063683
0.000642951
0.000648461
0.000653425
0.000657902
0.000661942
0.000665592
0.000668892
0.000671879
0.000674585
0.000677039
0.000679268
0.000681294
0.00068314
0.000684823
0.000686361
0.000687769
0.000689062
0.00069025
0.000691346
0.00069236
0.0006933
0.000694176
0.000694994
0.000695761
0.000696483
0.000697166
0.000697814
0.000698432
0.000699023
0.000699592
0.000700142
0.000700675
0.000701194
0.000701701
0.000702198
0.000702688
0.000703171
0.000703648
0.000704122
0.000704593
0.000705062
0.00070553
0.000705997
0.000706465
0.000706932
0.000707401
0.00070787
0.00070834
0.000708812
0.000709284
0.000709758
0.000710233
0.000710709
0.000711186
0.000711663
0.00071214
0.000712618
0.000713094
0.00071357
0.000714045
0.000714519
0.00071499
0.000715459
0.000715924
0.000716387
0.000716845
0.000717299
0.000717748
0.000718192
0.000718629
0.00071906
0.000719484
0.000719899
0.000720307
0.000720706
0.000721095
0.000721474
0.000721843
0.000722201
0.000722547
0.00072288
0.000723201
0.000723508
0.000723802
0.00072408
0.000724344
0.000724592
0.000724824
0.00072504
0.000725238
0.000725418
0.00072558
0.000725724
0.000725848
0.000725953
0.000726037
0.000726101
0.000726145
0.000726166
2.76587e-05
2.43763e-05
3.33862e-05
6.0154e-05
0.000105834
0.00016311
0.000223486
0.000281829
0.000335876
0.000384919
0.000428973
0.000468353
0.00050348
0.000534792
0.000562708
0.000587607
0.000609831
0.000629683
0.000647429
0.000663303
0.000677512
0.000690239
0.000701643
0.000711867
0.000721035
0.000729258
0.000736636
0.000743256
0.000749196
0.000754525
0.000759307
0.000763597
0.000767444
0.000770894
0.000773988
0.000776761
0.000779245
0.000781471
0.000783465
0.000785251
0.000786851
0.000788283
0.000789566
0.000790716
0.000791747
0.000792672
0.000793503
0.000794252
0.000794926
0.000795536
0.000796089
0.000796593
0.000797053
0.000797477
0.000797868
0.000798232
0.000798573
0.000798895
0.000799201
0.000799495
0.000799779
0.000800055
0.000800326
0.000800594
0.00080086
0.000801126
0.000801393
0.000801662
0.000801935
0.000802211
0.000802491
0.000802777
0.000803068
0.000803365
0.000803667
0.000803976
0.00080429
0.000804611
0.000804937
0.000805269
0.000805606
0.000805949
0.000806296
0.000806648
0.000807003
0.000807363
0.000807725
0.00080809
0.000808456
0.000808825
0.000809194
0.000809563
0.000809932
0.000810301
0.000810667
0.000811031
0.000811393
0.000811751
0.000812104
0.000812453
0.000812796
0.000813133
0.000813463
0.000813785
0.0008141
0.000814405
0.0008147
0.000814985
0.00081526
0.000815523
0.000815773
0.000816011
0.000816235
0.000816445
0.000816641
0.000816821
0.000816986
0.000817134
0.000817265
0.000817379
0.000817475
0.000817552
0.000817611
0.000817651
0.000817671
2.8696e-05
2.536e-05
3.52292e-05
6.42057e-05
0.000113372
0.000175023
0.000240423
0.00030423
0.000363961
0.000418712
0.000468353
0.000513102
0.000553323
0.000589423
0.000621803
0.000650845
0.000676894
0.000700265
0.000721238
0.000740064
0.000756964
0.000772138
0.000785761
0.000797992
0.000808971
0.000818822
0.000827659
0.000835582
0.000842681
0.000849037
0.000854723
0.000859805
0.000864341
0.000868386
0.000871988
0.000875189
0.00087803
0.000880546
0.00088277
0.000884731
0.000886455
0.000887968
0.00088929
0.000890442
0.000891442
0.000892307
0.00089305
0.000893687
0.00089423
0.000894688
0.000895074
0.000895396
0.000895662
0.00089588
0.000896057
0.0008962
0.000896313
0.000896402
0.000896471
0.000896525
0.000896568
0.000896601
0.00089663
0.000896655
0.00089668
0.000896707
0.000896737
0.000896771
0.000896812
0.00089686
0.000896916
0.000896981
0.000897057
0.000897142
0.000897238
0.000897345
0.000897462
0.000897591
0.000897731
0.000897882
0.000898044
0.000898216
0.000898398
0.00089859
0.000898791
0.000899001
0.00089922
0.000899446
0.00089968
0.00089992
0.000900166
0.000900417
0.000900673
0.000900933
0.000901196
0.000901461
0.000901727
0.000901995
0.000902263
0.00090253
0.000902795
0.000903059
0.000903319
0.000903575
0.000903827
0.000904074
0.000904315
0.000904548
0.000904774
0.000904992
0.000905201
0.0009054
0.000905588
0.000905765
0.000905931
0.000906084
0.000906225
0.000906351
0.000906464
0.000906561
0.000906644
0.000906711
0.000906761
0.000906796
0.000906813
2.96468e-05
2.62642e-05
3.69336e-05
6.79109e-05
0.000120127
0.000185533
0.000255261
0.000323855
0.000388669
0.000448633
0.00050348
0.000553323
0.000598457
0.000639242
0.000676055
0.000709262
0.000739205
0.0007662
0.000790533
0.000812464
0.000832225
0.000850028
0.00086606
0.000880491
0.000893474
0.000905146
0.000915632
0.000925044
0.000933481
0.000941037
0.000947793
0.000953824
0.000959198
0.000963978
0.000968219
0.000971971
0.000975282
0.000978193
0.000980743
0.000982967
0.000984897
0.000986562
0.000987988
0.0009892
0.00099022
0.000991067
0.000991762
0.000992319
0.000992755
0.000993084
0.000993317
0.000993468
0.000993547
0.000993563
0.000993525
0.00099344
0.000993317
0.000993162
0.000992981
0.000992779
0.000992561
0.000992332
0.000992094
0.000991853
0.00099161
0.00099137
0.000991133
0.000990903
0.000990681
0.00099047
0.000990269
0.000990081
0.000989907
0.000989747
0.000989602
0.000989473
0.00098936
0.000989263
0.000989182
0.000989118
0.00098907
0.000989038
0.000989022
0.000989021
0.000989036
0.000989065
0.000989108
0.000989165
0.000989235
0.000989317
0.00098941
0.000989515
0.000989629
0.000989753
0.000989886
0.000990026
0.000990173
0.000990326
0.000990484
0.000990646
0.000990812
0.000990981
0.000991151
0.000991322
0.000991493
0.000991663
0.000991831
0.000991997
0.000992159
0.000992318
0.000992471
0.000992618
0.000992759
0.000992892
0.000993017
0.000993134
0.000993242
0.000993339
0.000993426
0.000993502
0.000993566
0.000993618
0.000993658
0.000993685
0.000993698
3.05216e-05
2.70974e-05
3.85121e-05
7.13064e-05
0.000126203
0.000194847
0.000268311
0.000341094
0.000410437
0.000475135
0.000534792
0.000589423
0.000639242
0.000684559
0.000725713
0.000763048
0.000796893
0.000827559
0.000855332
0.000880472
0.00090322
0.000923791
0.000942384
0.000959176
0.00097433
0.000987994
0.0010003
0.00101137
0.00102131
0.00103023
0.00103822
0.00104536
0.00105172
0.00105737
0.00106239
0.00106682
0.00107072
0.00107414
0.00107713
0.00107971
0.00108194
0.00108384
0.00108545
0.00108679
0.0010879
0.00108878
0.00108948
0.00109
0.00109037
0.0010906
0.00109071
0.00109072
0.00109063
0.00109045
0.00109021
0.00108991
0.00108955
0.00108915
0.00108871
0.00108825
0.00108776
0.00108726
0.00108674
0.00108621
0.00108568
0.00108516
0.00108463
0.00108411
0.0010836
0.0010831
0.00108262
0.00108215
0.0010817
0.00108126
0.00108085
0.00108045
0.00108008
0.00107972
0.00107939
0.00107908
0.00107879
0.00107852
0.00107828
0.00107805
0.00107785
0.00107767
0.0010775
0.00107736
0.00107724
0.00107713
0.00107704
0.00107697
0.00107692
0.00107688
0.00107686
0.00107685
0.00107685
0.00107686
0.00107689
0.00107692
0.00107697
0.00107702
0.00107708
0.00107715
0.00107722
0.00107729
0.00107737
0.00107745
0.00107754
0.00107762
0.0010777
0.00107779
0.00107787
0.00107794
0.00107802
0.00107809
0.00107816
0.00107822
0.00107827
0.00107832
0.00107836
0.00107839
0.00107842
0.00107844
0.00107844
3.13295e-05
2.78679e-05
3.99778e-05
7.44275e-05
0.000131691
0.000203139
0.000279835
0.000356282
0.000429652
0.000498629
0.000562708
0.000621803
0.000676055
0.000725713
0.000771075
0.000812456
0.000850166
0.000884503
0.000915746
0.000944156
0.000969972
0.000993414
0.00101468
0.00103396
0.00105143
0.00106723
0.0010815
0.00109438
0.00110598
0.00111642
0.00112579
0.00113417
0.00114167
0.00114834
0.00115427
0.00115951
0.00116413
0.00116817
0.0011717
0.00117476
0.00117738
0.00117961
0.00118149
0.00118304
0.0011843
0.0011853
0.00118605
0.0011866
0.00118695
0.00118713
0.00118716
0.00118705
0.00118682
0.00118648
0.00118606
0.00118555
0.00118497
0.00118433
0.00118365
0.00118292
0.00118216
0.00118138
0.00118057
0.00117975
0.00117893
0.0011781
0.00117727
0.00117644
0.00117563
0.00117482
0.00117403
0.00117326
0.0011725
0.00117177
0.00117105
0.00117037
0.0011697
0.00116906
0.00116845
0.00116786
0.0011673
0.00116677
0.00116627
0.00116579
0.00116534
0.00116491
0.00116452
0.00116415
0.0011638
0.00116348
0.00116318
0.00116291
0.00116266
0.00116244
0.00116223
0.00116204
0.00116188
0.00116173
0.0011616
0.00116148
0.00116138
0.0011613
0.00116123
0.00116117
0.00116112
0.00116108
0.00116105
0.00116103
0.00116102
0.00116102
0.00116102
0.00116102
0.00116103
0.00116104
0.00116105
0.00116107
0.00116108
0.0011611
0.00116112
0.00116113
0.00116114
0.00116115
0.00116116
0.00116117
0.00116117
3.20789e-05
2.85833e-05
4.13431e-05
7.73068e-05
0.000136671
0.000210556
0.000290055
0.000369708
0.00044665
0.000519485
0.000587607
0.000650845
0.000709262
0.000763048
0.000812456
0.000857766
0.000899266
0.000937236
0.000971944
0.00100365
0.00103257
0.00105895
0.00108298
0.00110485
0.00112473
0.00114278
0.00115915
0.00117397
0.00118737
0.00119945
0.00121034
0.00122011
0.00122887
0.0012367
0.00124366
0.00124984
0.0012553
0.00126009
0.00126428
0.00126791
0.00127103
0.00127369
0.00127592
0.00127777
0.00127927
0.00128045
0.00128134
0.00128197
0.00128237
0.00128255
0.00128254
0.00128237
0.00128204
0.00128157
0.00128099
0.00128031
0.00127953
0.00127867
0.00127775
0.00127678
0.00127575
0.00127469
0.0012736
0.00127249
0.00127136
0.00127022
0.00126908
0.00126793
0.0012668
0.00126567
0.00126456
0.00126346
0.00126238
0.00126133
0.00126029
0.00125929
0.00125831
0.00125736
0.00125644
0.00125555
0.0012547
0.00125387
0.00125308
0.00125233
0.0012516
0.00125091
0.00125025
0.00124963
0.00124903
0.00124847
0.00124794
0.00124744
0.00124697
0.00124653
0.00124611
0.00124573
0.00124537
0.00124503
0.00124472
0.00124443
0.00124417
0.00124393
0.0012437
0.0012435
0.00124332
0.00124315
0.00124299
0.00124286
0.00124273
0.00124262
0.00124253
0.00124244
0.00124236
0.0012423
0.00124224
0.00124219
0.00124214
0.00124211
0.00124208
0.00124205
0.00124203
0.00124201
0.001242
0.00124199
0.00124199
3.27764e-05
2.92501e-05
4.26195e-05
7.99729e-05
0.00014121
0.000217223
0.000299155
0.000381614
0.000461723
0.000538023
0.000609831
0.000676894
0.000739205
0.000796893
0.000850166
0.000899266
0.000944453
0.000985988
0.00102412
0.00105911
0.00109116
0.00112051
0.00114735
0.00117187
0.00119425
0.00121465
0.00123321
0.00125008
0.00126538
0.00127924
0.00129176
0.00130305
0.0013132
0.0013223
0.00133043
0.00133766
0.00134408
0.00134973
0.00135469
0.001359
0.00136273
0.00136592
0.00136861
0.00137085
0.00137267
0.00137412
0.00137522
0.001376
0.00137651
0.00137675
0.00137677
0.00137657
0.00137619
0.00137564
0.00137494
0.00137411
0.00137317
0.00137212
0.00137098
0.00136977
0.0013685
0.00136718
0.00136581
0.0013644
0.00136297
0.00136153
0.00136007
0.0013586
0.00135714
0.00135568
0.00135423
0.0013528
0.00135138
0.00134999
0.00134862
0.00134728
0.00134597
0.00134469
0.00134344
0.00134223
0.00134106
0.00133992
0.00133882
0.00133776
0.00133673
0.00133575
0.0013348
0.0013339
0.00133303
0.0013322
0.00133141
0.00133065
0.00132994
0.00132926
0.00132861
0.001328
0.00132742
0.00132688
0.00132637
0.00132589
0.00132544
0.00132501
0.00132462
0.00132425
0.00132391
0.00132359
0.0013233
0.00132303
0.00132278
0.00132255
0.00132234
0.00132215
0.00132197
0.00132182
0.00132168
0.00132155
0.00132144
0.00132134
0.00132126
0.00132119
0.00132113
0.00132108
0.00132104
0.00132102
0.00132101
3.34281e-05
2.9874e-05
4.38167e-05
8.24509e-05
0.000145365
0.000223242
0.000307293
0.000392205
0.000475117
0.000554526
0.000629683
0.000700265
0.0007662
0.000827559
0.000884503
0.000937236
0.000985988
0.001031
0.0010725
0.00111072
0.00114589
0.00117822
0.0012079
0.00123512
0.00126005
0.00128286
0.0013037
0.00132271
0.00134001
0.00135574
0.00137001
0.00138291
0.00139456
0.00140505
0.00141445
0.00142286
0.00143034
0.00143697
0.0014428
0.00144791
0.00145234
0.00145616
0.0014594
0.00146212
0.00146436
0.00146615
0.00146754
0.00146856
0.00146924
0.00146962
0.00146972
0.00146957
0.00146918
0.0014686
0.00146783
0.0014669
0.00146582
0.00146461
0.00146329
0.00146187
0.00146037
0.0014588
0.00145717
0.00145549
0.00145377
0.00145202
0.00145024
0.00144846
0.00144667
0.00144487
0.00144308
0.00144131
0.00143955
0.0014378
0.00143609
0.00143439
0.00143273
0.00143111
0.00142951
0.00142796
0.00142644
0.00142497
0.00142354
0.00142215
0.0014208
0.0014195
0.00141825
0.00141704
0.00141587
0.00141475
0.00141368
0.00141265
0.00141166
0.00141072
0.00140982
0.00140896
0.00140814
0.00140737
0.00140663
0.00140594
0.00140528
0.00140466
0.00140407
0.00140352
0.00140301
0.00140252
0.00140207
0.00140165
0.00140126
0.00140089
0.00140056
0.00140025
0.00139996
0.0013997
0.00139947
0.00139926
0.00139907
0.0013989
0.00139876
0.00139863
0.00139853
0.00139845
0.00139839
0.00139835
0.00139833
3.40391e-05
3.04598e-05
4.49437e-05
8.47625e-05
0.000149186
0.0002287
0.000314597
0.000401657
0.000487046
0.000569236
0.000647429
0.000721238
0.000790533
0.000855332
0.000915746
0.000971944
0.00102412
0.0010725
0.00111728
0.0011587
0.00119695
0.00123224
0.00126476
0.0012947
0.00132222
0.00134749
0.00137066
0.00139187
0.00141125
0.00142893
0.00144503
0.00145965
0.0014729
0.00148487
0.00149566
0.00150534
0.00151399
0.00152169
0.00152851
0.00153451
0.00153975
0.00154429
0.00154818
0.00155147
0.00155421
0.00155644
0.0015582
0.00155953
0.00156047
0.00156105
0.0015613
0.00156125
0.00156092
0.00156036
0.00155957
0.00155858
0.00155741
0.00155608
0.00155461
0.00155302
0.00155132
0.00154953
0.00154765
0.00154571
0.00154372
0.00154168
0.0015396
0.0015375
0.00153538
0.00153325
0.00153113
0.001529
0.00152689
0.00152479
0.00152271
0.00152066
0.00151864
0.00151665
0.0015147
0.00151279
0.00151092
0.00150909
0.00150731
0.00150557
0.00150388
0.00150225
0.00150066
0.00149912
0.00149764
0.00149621
0.00149482
0.0014935
0.00149222
0.00149099
0.00148981
0.00148869
0.00148761
0.00148659
0.00148561
0.00148467
0.00148379
0.00148295
0.00148215
0.0014814
0.00148069
0.00148002
0.00147939
0.00147881
0.00147825
0.00147774
0.00147727
0.00147683
0.00147642
0.00147605
0.00147571
0.0014754
0.00147513
0.00147489
0.00147467
0.00147449
0.00147434
0.00147422
0.00147413
0.00147407
0.00147403
3.46136e-05
3.10118e-05
4.60078e-05
8.69265e-05
0.000152712
0.000233671
0.000321178
0.000410117
0.000497692
0.000582367
0.000663303
0.000740064
0.000812464
0.000880472
0.000944156
0.00100365
0.00105911
0.00111072
0.0011587
0.00120322
0.0012445
0.00128272
0.00131807
0.00135073
0.00138085
0.00140861
0.00143415
0.00145761
0.00147913
0.00149884
0.00151684
0.00153326
0.00154819
0.00156173
0.00157398
0.00158503
0.00159495
0.00160382
0.00161171
0.0016187
0.00162484
0.0016302
0.00163483
0.00163878
0.00164211
0.00164486
0.00164708
0.0016488
0.00165007
0.00165092
0.00165139
0.00165151
0.00165132
0.00165083
0.00165007
0.00164908
0.00164787
0.00164646
0.00164489
0.00164316
0.00164129
0.00163931
0.00163722
0.00163504
0.00163279
0.00163048
0.00162811
0.00162571
0.00162328
0.00162082
0.00161836
0.00161589
0.00161342
0.00161097
0.00160853
0.00160611
0.00160372
0.00160136
0.00159904
0.00159676
0.00159451
0.00159232
0.00159017
0.00158807
0.00158603
0.00158404
0.0015821
0.00158022
0.0015784
0.00157663
0.00157492
0.00157327
0.00157168
0.00157015
0.00156868
0.00156726
0.00156591
0.00156461
0.00156336
0.00156217
0.00156104
0.00155996
0.00155894
0.00155797
0.00155705
0.00155618
0.00155536
0.00155459
0.00155386
0.00155319
0.00155256
0.00155197
0.00155143
0.00155093
0.00155048
0.00155007
0.0015497
0.00154937
0.00154909
0.00154884
0.00154863
0.00154847
0.00154834
0.00154826
0.00154822
3.51554e-05
3.15335e-05
4.70156e-05
8.89589e-05
0.00015598
0.000238217
0.00032713
0.000417711
0.000507214
0.000594103
0.000677512
0.000756964
0.000832225