/*--------------------------------*- C++ -*----------------------------------*\
| =========                 |                                                 |
| \\      /  F ield         | OpenFOAM: The Open Source CFD Toolbox           |
|  \\    /   O peration     | Version:  4.x                                   |
|   \\  /    A nd           | Web:      www.OpenFOAM.org                      |
|    \\/     M anipulation  |                                                 |
\*---------------------------------------------------------------------------*/
FoamFile
{
    version     2.0;
    format      ascii;
    class       volScalarField;
    location    "98.07";
    object      p;
}
// * * * * * * * * * * * * * * * * * * * * * * * * * * * * * * * * * * * * * //

dimensions      [0 2 -2 0 0 0 0];

internalField   nonuniform List<scalar> 
15625
(
3.06832e-16
7.01516e-16
7.84181e-16
8.0254e-16
8.13911e-16
8.20946e-16
8.25029e-16
8.27767e-16
8.29868e-16
8.31641e-16
8.33184e-16
8.34567e-16
8.35829e-16
8.36988e-16
8.38056e-16
8.39086e-16
8.40011e-16
8.40927e-16
8.41776e-16
8.42587e-16
8.43372e-16
8.44155e-16
8.4491e-16
8.45645e-16
8.46341e-16
8.47004e-16
8.47658e-16
8.48314e-16
8.48951e-16
8.49535e-16
8.50143e-16
8.50729e-16
8.5131e-16
8.51895e-16
8.52499e-16
8.53044e-16
8.53592e-16
8.54163e-16
8.54702e-16
8.55215e-16
8.55761e-16
8.56277e-16
8.56754e-16
8.57215e-16
8.57695e-16
8.58131e-16
8.58568e-16
8.59012e-16
8.59456e-16
8.59953e-16
8.60432e-16
8.60866e-16
8.61327e-16
8.61828e-16
8.62357e-16
8.62892e-16
8.63404e-16
8.63925e-16
8.64454e-16
8.64993e-16
8.65559e-16
8.66142e-16
8.66737e-16
8.67315e-16
8.679e-16
8.68496e-16
8.691e-16
8.69745e-16
8.70375e-16
8.70995e-16
8.71594e-16
8.72242e-16
8.72883e-16
8.73502e-16
8.7421e-16
8.74935e-16
8.7558e-16
8.76219e-16
8.76785e-16
8.77439e-16
8.7816e-16
8.78844e-16
8.79562e-16
8.80216e-16
8.80861e-16
8.81526e-16
8.82257e-16
8.82877e-16
8.835e-16
8.84102e-16
8.84713e-16
8.85369e-16
8.85999e-16
8.86632e-16
8.87251e-16
8.87975e-16
8.88473e-16
8.88945e-16
8.895e-16
8.90042e-16
8.90544e-16
8.91051e-16
8.91506e-16
8.91927e-16
8.92346e-16
8.92789e-16
8.93158e-16
8.93501e-16
8.93823e-16
8.94099e-16
8.94344e-16
8.94625e-16
8.94845e-16
8.94963e-16
8.95127e-16
8.9526e-16
8.95525e-16
8.95707e-16
8.95726e-16
8.95839e-16
8.95887e-16
8.95997e-16
8.96036e-16
8.96149e-16
8.96087e-16
7.0152e-16
7.68498e-16
7.93647e-16
8.04874e-16
8.13327e-16
8.1938e-16
8.23528e-16
8.26567e-16
8.28934e-16
8.3094e-16
8.32655e-16
8.34138e-16
8.35483e-16
8.36707e-16
8.37843e-16
8.38883e-16
8.3984e-16
8.40773e-16
8.41687e-16
8.42492e-16
8.43295e-16
8.44063e-16
8.44816e-16
8.45523e-16
8.46252e-16
8.46953e-16
8.4762e-16
8.48263e-16
8.48903e-16
8.49498e-16
8.50097e-16
8.50684e-16
8.51259e-16
8.51851e-16
8.52468e-16
8.53013e-16
8.53571e-16
8.54173e-16
8.54677e-16
8.55182e-16
8.55726e-16
8.56259e-16
8.56723e-16
8.57188e-16
8.57664e-16
8.58123e-16
8.58543e-16
8.59003e-16
8.59462e-16
8.59933e-16
8.60394e-16
8.60823e-16
8.61306e-16
8.61793e-16
8.62335e-16
8.62851e-16
8.63375e-16
8.6391e-16
8.64425e-16
8.64968e-16
8.65529e-16
8.66111e-16
8.6669e-16
8.67299e-16
8.67871e-16
8.68467e-16
8.69061e-16
8.6974e-16
8.70334e-16
8.70954e-16
8.71567e-16
8.72248e-16
8.729e-16
8.73503e-16
8.74213e-16
8.74956e-16
8.75567e-16
8.76218e-16
8.76791e-16
8.77437e-16
8.78144e-16
8.78815e-16
8.79575e-16
8.802e-16
8.80897e-16
8.81602e-16
8.82293e-16
8.8289e-16
8.83525e-16
8.84111e-16
8.8469e-16
8.85366e-16
8.86004e-16
8.86616e-16
8.87275e-16
8.87958e-16
8.88432e-16
8.88948e-16
8.89492e-16
8.90061e-16
8.90553e-16
8.91046e-16
8.91514e-16
8.91874e-16
8.92318e-16
8.92793e-16
8.93119e-16
8.9351e-16
8.93864e-16
8.94101e-16
8.94351e-16
8.94648e-16
8.94822e-16
8.94912e-16
8.95128e-16
8.95296e-16
8.95549e-16
8.95728e-16
8.95765e-16
8.95889e-16
8.95902e-16
8.95974e-16
8.9603e-16
8.96153e-16
8.96083e-16
7.84201e-16
7.93662e-16
7.99915e-16
8.06955e-16
8.13446e-16
8.18599e-16
8.22566e-16
8.25685e-16
8.28219e-16
8.30327e-16
8.32152e-16
8.33754e-16
8.35137e-16
8.36415e-16
8.3758e-16
8.38669e-16
8.39629e-16
8.40581e-16
8.41529e-16
8.42364e-16
8.43204e-16
8.43984e-16
8.44741e-16
8.45467e-16
8.46208e-16
8.46914e-16
8.47593e-16
8.48201e-16
8.48818e-16
8.49428e-16
8.50018e-16
8.50597e-16
8.51167e-16
8.51751e-16
8.52399e-16
8.53008e-16
8.53536e-16
8.54159e-16
8.54646e-16
8.55163e-16
8.55668e-16
8.56209e-16
8.56685e-16
8.57147e-16
8.5766e-16
8.58105e-16
8.58537e-16
8.58958e-16
8.59412e-16
8.59914e-16
8.60373e-16
8.60835e-16
8.61332e-16
8.61791e-16
8.62302e-16
8.62861e-16
8.63357e-16
8.63889e-16
8.64462e-16
8.64988e-16
8.6551e-16
8.66139e-16
8.66707e-16
8.67274e-16
8.67855e-16
8.68443e-16
8.69053e-16
8.69709e-16
8.70334e-16
8.70946e-16
8.71561e-16
8.72174e-16
8.72948e-16
8.73519e-16
8.74184e-16
8.74935e-16
8.75574e-16
8.76176e-16
8.76777e-16
8.77362e-16
8.78044e-16
8.78805e-16
8.79593e-16
8.8019e-16
8.80874e-16
8.81625e-16
8.82327e-16
8.8297e-16
8.83603e-16
8.84107e-16
8.84694e-16
8.85394e-16
8.86089e-16
8.86628e-16
8.87298e-16
8.87916e-16
8.88434e-16
8.88945e-16
8.89486e-16
8.90042e-16
8.90486e-16
8.91099e-16
8.91548e-16
8.91907e-16
8.92425e-16
8.929e-16
8.93069e-16
8.93502e-16
8.93933e-16
8.94117e-16
8.94373e-16
8.94656e-16
8.94889e-16
8.94916e-16
8.95198e-16
8.95337e-16
8.95575e-16
8.95757e-16
8.95849e-16
8.95894e-16
8.9595e-16
8.95968e-16
8.96046e-16
8.96212e-16
8.9613e-16
8.02579e-16
8.04912e-16
8.07004e-16
8.10832e-16
8.15065e-16
8.18956e-16
8.22353e-16
8.25284e-16
8.27728e-16
8.29854e-16
8.31709e-16
8.33378e-16
8.34827e-16
8.36208e-16
8.37371e-16
8.38476e-16
8.39397e-16
8.40392e-16
8.41419e-16
8.42182e-16
8.43021e-16
8.43847e-16
8.44604e-16
8.4538e-16
8.46178e-16
8.46832e-16
8.47561e-16
8.48206e-16
8.48728e-16
8.49302e-16
8.49861e-16
8.50543e-16
8.51293e-16
8.51676e-16
8.52302e-16
8.53059e-16
8.53445e-16
8.54041e-16
8.54562e-16
8.5527e-16
8.55699e-16
8.56273e-16
8.56729e-16
8.57043e-16
8.57615e-16
8.58144e-16
8.58444e-16
8.58861e-16
8.59299e-16
8.59903e-16
8.60371e-16
8.60765e-16
8.61301e-16
8.61716e-16
8.62283e-16
8.62895e-16
8.63428e-16
8.63864e-16
8.6443e-16
8.65019e-16
8.65429e-16
8.66206e-16
8.66724e-16
8.67197e-16
8.67773e-16
8.6858e-16
8.69191e-16
8.69722e-16
8.70377e-16
8.71096e-16
8.71522e-16
8.72049e-16
8.72877e-16
8.73604e-16
8.74087e-16
8.74756e-16
8.75417e-16
8.76147e-16
8.76565e-16
8.7728e-16
8.78009e-16
8.78729e-16
8.7958e-16
8.80196e-16
8.80837e-16
8.81552e-16
8.82494e-16
8.83032e-16
8.83563e-16
8.84078e-16
8.84784e-16
8.85462e-16
8.86073e-16
8.86682e-16
8.87395e-16
8.87907e-16
8.88497e-16
8.8901e-16
8.89597e-16
8.90038e-16
8.90486e-16
8.9112e-16
8.91468e-16
8.91998e-16
8.92381e-16
8.92711e-16
8.92995e-16
8.9346e-16
8.93895e-16
8.94129e-16
8.94415e-16
8.94621e-16
8.94861e-16
8.94783e-16
8.95157e-16
8.95406e-16
8.95707e-16
8.95845e-16
8.95914e-16
8.95769e-16
8.95962e-16
8.95948e-16
8.9605e-16
8.96388e-16
8.96236e-16
8.13968e-16
8.13377e-16
8.13488e-16
8.15086e-16
8.17417e-16
8.20048e-16
8.22692e-16
8.25196e-16
8.27474e-16
8.29459e-16
8.31371e-16
8.32981e-16
8.34473e-16
8.35855e-16
8.37145e-16
8.38204e-16
8.39259e-16
8.40269e-16
8.4118e-16
8.41981e-16
8.42887e-16
8.43718e-16
8.44429e-16
8.45395e-16
8.46048e-16
8.46738e-16
8.47377e-16
8.48067e-16
8.48773e-16
8.49317e-16
8.49886e-16
8.5052e-16
8.51309e-16
8.51644e-16
8.52177e-16
8.52892e-16
8.53416e-16
8.53922e-16
8.54499e-16
8.55193e-16
8.55661e-16
8.56297e-16
8.56772e-16
8.57027e-16
8.5762e-16
8.58041e-16
8.58507e-16
8.58899e-16
8.59389e-16
8.5976e-16
8.60369e-16
8.6067e-16
8.61264e-16
8.61909e-16
8.62206e-16
8.62802e-16
8.63208e-16
8.63813e-16
8.64431e-16
8.64937e-16
8.65424e-16
8.66083e-16
8.66718e-16
8.6722e-16
8.67693e-16
8.68461e-16
8.68833e-16
8.69718e-16
8.70394e-16
8.70958e-16
8.71559e-16
8.72173e-16
8.72797e-16
8.73458e-16
8.74159e-16
8.74779e-16
8.75325e-16
8.76306e-16
8.76783e-16
8.77391e-16
8.78145e-16
8.78756e-16
8.79412e-16
8.80192e-16
8.80883e-16
8.81362e-16
8.82412e-16
8.82979e-16
8.83525e-16
8.84205e-16
8.84784e-16
8.85448e-16
8.86097e-16
8.86827e-16
8.87405e-16
8.87982e-16
8.88768e-16
8.89133e-16
8.89487e-16
8.89942e-16
8.90617e-16
8.91087e-16
8.91524e-16
8.92076e-16
8.92448e-16
8.92782e-16
8.93125e-16
8.93558e-16
8.93628e-16
8.94113e-16
8.94524e-16
8.94631e-16
8.94997e-16
8.94918e-16
8.95142e-16
8.95304e-16
8.95553e-16
8.95737e-16
8.95724e-16
8.95742e-16
8.95879e-16
8.95856e-16
8.95964e-16
8.96155e-16
8.9617e-16
8.2102e-16
8.19453e-16
8.18658e-16
8.18996e-16
8.20066e-16
8.21636e-16
8.23569e-16
8.25622e-16
8.27632e-16
8.29431e-16
8.31162e-16
8.32743e-16
8.34171e-16
8.35431e-16
8.36741e-16
8.37757e-16
8.38985e-16
8.4014e-16
8.41083e-16
8.41887e-16
8.42763e-16
8.43717e-16
8.44596e-16
8.44986e-16
8.45942e-16
8.46592e-16
8.47153e-16
8.47931e-16
8.48737e-16
8.49277e-16
8.49825e-16
8.50406e-16
8.51004e-16
8.51411e-16
8.52108e-16
8.52839e-16
8.53284e-16
8.53611e-16
8.54408e-16
8.54944e-16
8.55567e-16
8.56269e-16
8.56737e-16
8.56985e-16
8.57616e-16
8.57993e-16
8.5871e-16
8.58817e-16
8.59235e-16
8.59773e-16
8.6024e-16
8.60505e-16
8.61119e-16
8.61905e-16
8.62115e-16
8.62806e-16
8.63208e-16
8.63747e-16
8.64313e-16
8.64851e-16
8.65318e-16
8.66134e-16
8.6697e-16
8.67329e-16
8.67736e-16
8.68227e-16
8.68775e-16
8.69587e-16
8.70002e-16
8.70772e-16
8.71541e-16
8.72203e-16
8.72856e-16
8.73494e-16
8.74113e-16
8.74615e-16
8.75329e-16
8.7636e-16
8.77149e-16
8.77349e-16
8.78109e-16
8.78825e-16
8.79468e-16
8.79957e-16
8.80715e-16
8.81507e-16
8.82317e-16
8.82715e-16
8.83422e-16
8.84147e-16
8.84804e-16
8.85537e-16
8.86e-16
8.86815e-16
8.87361e-16
8.88083e-16
8.88838e-16
8.89328e-16
8.89268e-16
8.90011e-16
8.90621e-16
8.91e-16
8.91507e-16
8.92004e-16
8.92542e-16
8.92772e-16
8.93105e-16
8.93525e-16
8.93505e-16
8.94112e-16
8.9437e-16
8.9464e-16
8.95136e-16
8.94989e-16
8.95137e-16
8.95109e-16
8.95635e-16
8.95909e-16
8.95642e-16
8.95712e-16
8.95908e-16
8.959e-16
8.96072e-16
8.96158e-16
8.96364e-16
8.25122e-16
8.23615e-16
8.22636e-16
8.22395e-16
8.22732e-16
8.23559e-16
8.24837e-16
8.2637e-16
8.27989e-16
8.29656e-16
8.31198e-16
8.32709e-16
8.34062e-16
8.35326e-16
8.36615e-16
8.37797e-16
8.38841e-16
8.39962e-16
8.40963e-16
8.41816e-16
8.42651e-16
8.43605e-16
8.44428e-16
8.45003e-16
8.45851e-16
8.46496e-16
8.47121e-16
8.47843e-16
8.4859e-16
8.4899e-16
8.49634e-16
8.50303e-16
8.5093e-16
8.51407e-16
8.51864e-16
8.52594e-16
8.53035e-16
8.53786e-16
8.54322e-16
8.54978e-16
8.55487e-16
8.55978e-16
8.56431e-16
8.5701e-16
8.5754e-16
8.57794e-16
8.58451e-16
8.58848e-16
8.5931e-16
8.59761e-16
8.60057e-16
8.60642e-16
8.61241e-16
8.61776e-16
8.61939e-16
8.62592e-16
8.63125e-16
8.63654e-16
8.64112e-16
8.64636e-16
8.65287e-16
8.65957e-16
8.66583e-16
8.67214e-16
8.67821e-16
8.68134e-16
8.6871e-16
8.69574e-16
8.70271e-16
8.7077e-16
8.71505e-16
8.72171e-16
8.72791e-16
8.72996e-16
8.73845e-16
8.74787e-16
8.75442e-16
8.76074e-16
8.77069e-16
8.76906e-16
8.78025e-16
8.79075e-16
8.79609e-16
8.79928e-16
8.80939e-16
8.81544e-16
8.81954e-16
8.82763e-16
8.83662e-16
8.84045e-16
8.84737e-16
8.85451e-16
8.86151e-16
8.86847e-16
8.87589e-16
8.88357e-16
8.89088e-16
8.89184e-16
8.89498e-16
8.90362e-16
8.9077e-16
8.90724e-16
8.91381e-16
8.91951e-16
8.92214e-16
8.92618e-16
8.9309e-16
8.93581e-16
8.93871e-16
8.94114e-16
8.94081e-16
8.94629e-16
8.95201e-16
8.95291e-16
8.95138e-16
8.95e-16
8.95665e-16
8.9555e-16
8.95639e-16
8.95637e-16
8.95719e-16
8.96272e-16
8.96415e-16
8.97278e-16
8.97051e-16
8.2788e-16
8.26679e-16
8.25769e-16
8.25311e-16
8.25237e-16
8.25573e-16
8.26393e-16
8.2748e-16
8.2873e-16
8.30155e-16
8.31492e-16
8.32831e-16
8.34121e-16
8.35319e-16
8.36655e-16
8.37825e-16
8.38841e-16
8.39774e-16
8.40749e-16
8.41534e-16
8.42423e-16
8.43369e-16
8.44631e-16
8.45071e-16
8.45696e-16
8.46404e-16
8.47006e-16
8.47779e-16
8.48598e-16
8.48838e-16
8.49336e-16
8.50222e-16
8.51131e-16
8.51903e-16
8.52017e-16
8.52427e-16
8.52925e-16
8.53621e-16
8.54349e-16
8.55028e-16
8.55408e-16
8.55871e-16
8.56506e-16
8.57083e-16
8.57147e-16
8.57589e-16
8.58132e-16
8.58749e-16
8.59217e-16
8.59855e-16
8.59949e-16
8.60604e-16
8.61426e-16
8.61188e-16
8.61881e-16
8.62413e-16
8.6321e-16
8.6386e-16
8.64111e-16
8.64392e-16
8.64976e-16
8.65776e-16
8.66394e-16
8.67356e-16
8.67911e-16
8.68134e-16
8.68895e-16
8.69567e-16
8.70607e-16
8.70557e-16
8.71501e-16
8.72072e-16
8.72683e-16
8.73522e-16
8.73811e-16
8.74172e-16
8.75661e-16
8.76183e-16
8.76685e-16
8.76401e-16
8.77352e-16
8.79151e-16
8.79708e-16
8.80468e-16
8.81318e-16
8.82482e-16
8.81939e-16
8.82568e-16
8.8431e-16
8.83867e-16
8.84584e-16
8.85216e-16
8.85366e-16
8.87073e-16
8.87301e-16
8.88213e-16
8.88755e-16
8.89195e-16
8.89553e-16
8.90092e-16
8.906e-16
8.90843e-16
8.91464e-16
8.91805e-16
8.92168e-16
8.9292e-16
8.92931e-16
8.93593e-16
8.93568e-16
8.94086e-16
8.94049e-16
8.94735e-16
8.95088e-16
8.95247e-16
8.95136e-16
8.9543e-16
8.95146e-16
8.95298e-16
8.9589e-16
8.95644e-16
8.95476e-16
8.964e-16
8.96275e-16
8.97573e-16
8.9661e-16
8.30018e-16
8.29109e-16
8.28334e-16
8.27853e-16
8.27555e-16
8.27524e-16
8.28073e-16
8.28803e-16
8.29702e-16
8.30887e-16
8.32059e-16
8.33251e-16
8.34443e-16
8.35778e-16
8.36576e-16
8.37771e-16
8.39134e-16
8.39799e-16
8.40762e-16
8.4151e-16
8.4192e-16
8.42749e-16
8.44157e-16
8.45186e-16
8.45645e-16
8.46328e-16
8.46663e-16
8.47667e-16
8.48764e-16
8.49034e-16
8.49708e-16
8.50241e-16
8.51108e-16
8.5147e-16
8.52091e-16
8.52675e-16
8.53274e-16
8.53659e-16
8.54303e-16
8.54818e-16
8.55618e-16
8.55865e-16
8.564e-16
8.56611e-16
8.56668e-16
8.57172e-16
8.57148e-16
8.58173e-16
8.58777e-16
8.60329e-16
8.59892e-16
8.60233e-16
8.61992e-16
8.60999e-16
8.61805e-16
8.63078e-16
8.62658e-16
8.63606e-16
8.63881e-16
8.64652e-16
8.64707e-16
8.65577e-16
8.66384e-16
8.66969e-16
8.67701e-16
8.67839e-16
8.69059e-16
8.69364e-16
8.70246e-16
8.70745e-16
8.71788e-16
8.72031e-16
8.72445e-16
8.7294e-16
8.7438e-16
8.74728e-16
8.7549e-16
8.76763e-16
8.76534e-16
8.76721e-16
8.78287e-16
8.79298e-16
8.8007e-16
8.80376e-16
8.81025e-16
8.82733e-16
8.81909e-16
8.82672e-16
8.8429e-16
8.84296e-16
8.85011e-16
8.85551e-16
8.85479e-16
8.8715e-16
8.86699e-16
8.87562e-16
8.89178e-16
8.88773e-16
8.89698e-16
8.90852e-16
8.9066e-16
8.9054e-16
8.91517e-16
8.91492e-16
8.91686e-16
8.92833e-16
8.93509e-16
8.93839e-16
8.93756e-16
8.93972e-16
8.94323e-16
8.95101e-16
8.94493e-16
8.9542e-16
8.95007e-16
8.96099e-16
8.9442e-16
8.96049e-16
8.95921e-16
8.95762e-16
8.95638e-16
8.96737e-16
8.96075e-16
8.96737e-16
8.96356e-16
8.31799e-16
8.31101e-16
8.30485e-16
8.30047e-16
8.2974e-16
8.29524e-16
8.29685e-16
8.30184e-16
8.30831e-16
8.31843e-16
8.32918e-16
8.34096e-16
8.34908e-16
8.36023e-16
8.36756e-16
8.37648e-16
8.39053e-16
8.40149e-16
8.40994e-16
8.41801e-16
8.42471e-16
8.43327e-16
8.44349e-16
8.45531e-16
8.4585e-16
8.46623e-16
8.47266e-16
8.47615e-16
8.4862e-16
8.4907e-16
8.4966e-16
8.50284e-16
8.51185e-16
8.5207e-16
8.5205e-16
8.52508e-16
8.53259e-16
8.53509e-16
8.54486e-16
8.55334e-16
8.56254e-16
8.55922e-16
8.56656e-16
8.56723e-16
8.56345e-16
8.57219e-16
8.58178e-16
8.58078e-16
8.58663e-16
8.59537e-16
8.60443e-16
8.60632e-16
8.61701e-16
8.61596e-16
8.62268e-16
8.63555e-16
8.63201e-16
8.64091e-16
8.64132e-16
8.64907e-16
8.6449e-16
8.65837e-16
8.66733e-16
8.66792e-16
8.68132e-16
8.67798e-16
8.68001e-16
8.68825e-16
8.70476e-16
8.70879e-16
8.71375e-16
8.71899e-16
8.73063e-16
8.73341e-16
8.73942e-16
8.74225e-16
8.75937e-16
8.76537e-16
8.76263e-16
8.77309e-16
8.78325e-16
8.78622e-16
8.80307e-16
8.80495e-16
8.82004e-16
8.83195e-16
8.8211e-16
8.82973e-16
8.8367e-16
8.84114e-16
8.84497e-16
8.86008e-16
8.85952e-16
8.87398e-16
8.8669e-16
8.87924e-16
8.8925e-16
8.88966e-16
8.89942e-16
8.90874e-16
8.9087e-16
8.90615e-16
8.91951e-16
8.91875e-16
8.92711e-16
8.93684e-16
8.94432e-16
8.94253e-16
8.93867e-16
8.93646e-16
8.9433e-16
8.95226e-16
8.94819e-16
8.95305e-16
8.94977e-16
8.95529e-16
8.95363e-16
8.96568e-16
8.95675e-16
8.96035e-16
8.94603e-16
8.96949e-16
8.95885e-16
8.95391e-16
8.9534e-16
8.33356e-16
8.32826e-16
8.32319e-16
8.31879e-16
8.31548e-16
8.31264e-16
8.31304e-16
8.31612e-16
8.32137e-16
8.32637e-16
8.33742e-16
8.34725e-16
8.35522e-16
8.36325e-16
8.37286e-16
8.3823e-16
8.39293e-16
8.40309e-16
8.41379e-16
8.42174e-16
8.43082e-16
8.43652e-16
8.44506e-16
8.45013e-16
8.45172e-16
8.46582e-16
8.47525e-16
8.47996e-16
8.48422e-16
8.48996e-16
8.49579e-16
8.50591e-16
8.5111e-16
8.51534e-16
8.5194e-16
8.52248e-16
8.53157e-16
8.5355e-16
8.54479e-16
8.54944e-16
8.55436e-16
8.55656e-16
8.56811e-16
8.56578e-16
8.57171e-16
8.57644e-16
8.5773e-16
8.58079e-16
8.58627e-16
8.59457e-16
8.59713e-16
8.60493e-16
8.60761e-16
8.61074e-16
8.61865e-16
8.62582e-16
8.62883e-16
8.63427e-16
8.6384e-16
8.64373e-16
8.6449e-16
8.65624e-16
8.66342e-16
8.66232e-16
8.67088e-16
8.67837e-16
8.6818e-16
8.69099e-16
8.69986e-16
8.7052e-16
8.71019e-16
8.71418e-16
8.72716e-16
8.7351e-16
8.73393e-16
8.74411e-16
8.75749e-16
8.75946e-16
8.76862e-16
8.77535e-16
8.7806e-16
8.7912e-16
8.79783e-16
8.80445e-16
8.81572e-16
8.82889e-16
8.83293e-16
8.83585e-16
8.831e-16
8.83944e-16
8.84829e-16
8.86173e-16
8.86086e-16
8.87392e-16
8.8781e-16
8.88471e-16
8.89024e-16
8.88682e-16
8.89475e-16
8.90721e-16
8.90463e-16
8.91006e-16
8.92051e-16
8.9179e-16
8.92724e-16
8.93134e-16
8.93683e-16
8.94085e-16
8.93944e-16
8.93999e-16
8.94087e-16
8.95309e-16
8.95214e-16
8.95116e-16
8.94665e-16
8.95299e-16
8.95331e-16
8.9588e-16
8.95334e-16
8.95647e-16
8.95431e-16
8.96199e-16
8.96136e-16
8.96042e-16
8.95869e-16
8.34755e-16
8.34333e-16
8.33942e-16
8.33559e-16
8.33153e-16
8.32888e-16
8.32828e-16
8.32985e-16
8.33269e-16
8.33463e-16
8.34598e-16
8.3541e-16
8.36049e-16
8.36528e-16
8.3774e-16
8.38602e-16
8.39624e-16
8.40361e-16
8.41638e-16
8.42663e-16
8.43526e-16
8.44288e-16
8.45001e-16
8.44574e-16
8.45718e-16
8.46401e-16
8.47309e-16
8.47887e-16
8.48262e-16
8.48904e-16
8.49131e-16
8.50454e-16
8.50566e-16
8.50953e-16
8.51892e-16
8.52727e-16
8.53967e-16
8.53349e-16
8.54296e-16
8.54827e-16
8.55236e-16
8.5618e-16
8.57021e-16
8.56489e-16
8.57684e-16
8.57585e-16
8.57519e-16
8.58117e-16
8.5822e-16
8.59448e-16
8.59466e-16
8.60678e-16
8.61981e-16
8.61829e-16
8.61769e-16
8.62216e-16
8.62525e-16
8.62779e-16
8.63309e-16
8.63902e-16
8.64702e-16
8.65493e-16
8.66532e-16
8.66403e-16
8.67093e-16
8.67702e-16
8.68863e-16
8.69552e-16
8.69771e-16
8.70274e-16
8.70559e-16
8.71695e-16
8.72479e-16
8.73173e-16
8.73729e-16
8.74456e-16
8.75353e-16
8.75182e-16
8.76409e-16
8.77852e-16
8.77517e-16
8.80084e-16
8.79209e-16
8.80403e-16
8.81921e-16
8.82986e-16
8.82821e-16
8.83266e-16
8.83002e-16
8.84812e-16
8.84781e-16
8.85866e-16
8.86498e-16
8.86675e-16
8.88299e-16
8.88275e-16
8.88314e-16
8.88757e-16
8.89999e-16
8.90722e-16
8.91107e-16
8.91042e-16
8.91278e-16
8.92052e-16
8.93114e-16
8.94213e-16
8.93493e-16
8.94466e-16
8.93589e-16
8.93823e-16
8.94347e-16
8.95323e-16
8.95103e-16
8.95212e-16
8.94844e-16
8.95238e-16
8.9531e-16
8.95993e-16
8.95036e-16
8.95223e-16
8.96024e-16
8.95972e-16
8.95577e-16
8.96587e-16
8.96399e-16
8.36027e-16
8.3569e-16
8.35359e-16
8.35038e-16
8.34675e-16
8.34391e-16
8.34228e-16
8.34243e-16
8.3444e-16
8.3483e-16
8.35452e-16
8.36039e-16
8.36972e-16
8.37361e-16
8.38254e-16
8.39243e-16
8.40184e-16
8.40209e-16
8.41493e-16
8.42671e-16
8.4353e-16
8.44034e-16
8.44778e-16
8.45089e-16
8.46134e-16
8.46633e-16
8.47368e-16
8.47948e-16
8.48457e-16
8.49156e-16
8.49704e-16
8.5031e-16
8.50721e-16
8.50838e-16
8.51722e-16
8.51961e-16
8.53449e-16
8.53588e-16
8.54597e-16
8.54786e-16
8.54794e-16
8.55716e-16
8.56467e-16
8.56574e-16
8.57386e-16
8.57322e-16
8.58403e-16
8.57465e-16
8.58548e-16
8.59745e-16
8.59573e-16
8.60827e-16
8.6082e-16
8.61149e-16
8.61828e-16
8.62382e-16
8.62012e-16
8.63134e-16
8.6365e-16
8.64665e-16
8.64637e-16
8.65049e-16
8.65014e-16
8.65958e-16
8.66989e-16
8.67094e-16
8.68434e-16
8.68882e-16
8.69384e-16
8.69846e-16
8.70444e-16
8.7191e-16
8.71999e-16
8.73726e-16
8.7373e-16
8.73875e-16
8.75454e-16
8.75515e-16
8.77391e-16
8.77793e-16
8.7734e-16
8.79716e-16
8.79377e-16
8.80707e-16
8.82012e-16
8.83672e-16
8.82522e-16
8.82998e-16
8.84625e-16
8.85115e-16
8.84724e-16
8.85728e-16
8.87359e-16
8.86667e-16
8.88378e-16
8.88251e-16
8.88914e-16
8.88973e-16
8.89471e-16
8.90416e-16
8.91332e-16
8.90748e-16
8.90868e-16
8.92225e-16
8.92897e-16
8.93971e-16
8.93304e-16
8.94737e-16
8.93593e-16
8.93751e-16
8.9407e-16
8.94939e-16
8.95453e-16
8.95086e-16
8.94403e-16
8.95075e-16
8.9547e-16
8.95697e-16
8.95264e-16
8.96059e-16
8.95475e-16
8.96016e-16
8.95804e-16
8.975e-16
8.96852e-16
8.37202e-16
8.3693e-16
8.36648e-16
8.36294e-16
8.36018e-16
8.35848e-16
8.35567e-16
8.35356e-16
8.35275e-16
8.35911e-16
8.36595e-16
8.3733e-16
8.37837e-16
8.38135e-16
8.38452e-16
8.39508e-16
8.40596e-16
8.41222e-16
8.41996e-16
8.42995e-16
8.44304e-16
8.44622e-16
8.44735e-16
8.45419e-16
8.46216e-16
8.46025e-16
8.47356e-16
8.48072e-16
8.48504e-16
8.49775e-16
8.50278e-16
8.5032e-16
8.51131e-16
8.51576e-16
8.52263e-16
8.52012e-16
8.53523e-16
8.53573e-16
8.53536e-16
8.54674e-16
8.55016e-16
8.55142e-16
8.56343e-16
8.57325e-16
8.58292e-16
8.58333e-16
8.58349e-16
8.58176e-16
8.5918e-16
8.6064e-16
8.59816e-16
8.58929e-16
8.60435e-16
8.60363e-16
8.61796e-16
8.62983e-16
8.62059e-16
8.63736e-16
8.63384e-16
8.64308e-16
8.63642e-16
8.6434e-16
8.63746e-16
8.65888e-16
8.66929e-16
8.67269e-16
8.67223e-16
8.68126e-16
8.68685e-16
8.68697e-16
8.70448e-16
8.71394e-16
8.71476e-16
8.72911e-16
8.73371e-16
8.73921e-16
8.7516e-16
8.76628e-16
8.77188e-16
8.7787e-16
8.77699e-16
8.79801e-16
8.80355e-16
8.81586e-16
8.83012e-16
8.83286e-16
8.81989e-16
8.83489e-16
8.84828e-16
8.85575e-16
8.85292e-16
8.85566e-16
8.86306e-16
8.86848e-16
8.87528e-16
8.88396e-16
8.89799e-16
8.88546e-16
8.89924e-16
8.90557e-16
8.90999e-16
8.91517e-16
8.90419e-16
8.92221e-16
8.93189e-16
8.93698e-16
8.92792e-16
8.94641e-16
8.94225e-16
8.92969e-16
8.95056e-16
8.95489e-16
8.95072e-16
8.93625e-16
8.94099e-16
8.94778e-16
8.95902e-16
8.95594e-16
8.94914e-16
8.97386e-16
8.94338e-16
8.96092e-16
8.95666e-16
8.96609e-16
8.96272e-16
8.38312e-16
8.38081e-16
8.37862e-16
8.37529e-16
8.3716e-16
8.37081e-16
8.36875e-16
8.36791e-16
8.36747e-16
8.37049e-16
8.37382e-16
8.37908e-16
8.38604e-16
8.39436e-16
8.39669e-16
8.3991e-16
8.40983e-16
8.41619e-16
8.42772e-16
8.43063e-16
8.44274e-16
8.44763e-16
8.45344e-16
8.45933e-16
8.46046e-16
8.46564e-16
8.472e-16
8.48225e-16
8.49219e-16
8.50626e-16
8.5012e-16
8.49914e-16
8.51876e-16
8.52391e-16
8.52687e-16
8.53323e-16
8.5319e-16
8.53397e-16
8.5432e-16
8.54733e-16
8.54771e-16
8.56271e-16
8.56591e-16
8.56679e-16
8.58512e-16
8.58642e-16
8.58225e-16
8.57296e-16
8.58939e-16
8.60205e-16
8.59929e-16
8.59365e-16
8.60893e-16
8.61206e-16
8.60982e-16
8.60674e-16
8.62509e-16
8.62918e-16
8.6231e-16
8.63668e-16
8.63677e-16
8.64744e-16
8.64583e-16
8.65761e-16
8.66925e-16
8.67345e-16
8.67726e-16
8.685e-16
8.69258e-16
8.69399e-16
8.6993e-16
8.7068e-16
8.71772e-16
8.7381e-16
8.74527e-16
8.74813e-16
8.74424e-16
8.7677e-16
8.76608e-16
8.76298e-16
8.78175e-16
8.79188e-16
8.80221e-16
8.81866e-16
8.81514e-16
8.83626e-16
8.82088e-16
8.83536e-16
8.83396e-16
8.84908e-16
8.85656e-16
8.87298e-16
8.86591e-16
8.86458e-16
8.87812e-16
8.88584e-16
8.89023e-16
8.88556e-16
8.90702e-16
8.91274e-16
8.91107e-16
8.91718e-16
8.90776e-16
8.92532e-16
8.9391e-16
8.93222e-16
8.93351e-16
8.93962e-16
8.94955e-16
8.93483e-16
8.96213e-16
8.97038e-16
8.93925e-16
8.96292e-16
8.94566e-16
8.95161e-16
8.95954e-16
8.96252e-16
8.95453e-16
8.95738e-16
8.94968e-16
8.95387e-16
8.94265e-16
8.96824e-16
8.96138e-16
8.39324e-16
8.39163e-16
8.38934e-16
8.38624e-16
8.38434e-16
8.38354e-16
8.37935e-16
8.37948e-16
8.37903e-16
8.38388e-16
8.38383e-16
8.38845e-16
8.3923e-16
8.39915e-16
8.40943e-16
8.41058e-16
8.41632e-16
8.4224e-16
8.43284e-16
8.43447e-16
8.44021e-16
8.45079e-16
8.45996e-16
8.46186e-16
8.45497e-16
8.46791e-16
8.47925e-16
8.48672e-16
8.49383e-16
8.50502e-16
8.5019e-16
8.49798e-16
8.50739e-16
8.51727e-16
8.51894e-16
8.52479e-16
8.51369e-16
8.51932e-16
8.53429e-16
8.54619e-16
8.55194e-16
8.56114e-16
8.56809e-16
8.56269e-16
8.56894e-16
8.57431e-16
8.58239e-16
8.58174e-16
8.58734e-16
8.61456e-16
8.60677e-16
8.60453e-16
8.60332e-16
8.6065e-16
8.61387e-16
8.62203e-16
8.62532e-16
8.62892e-16
8.63028e-16
8.63834e-16
8.642e-16
8.64407e-16
8.64663e-16
8.66e-16
8.67351e-16
8.67447e-16
8.67681e-16
8.68558e-16
8.67734e-16
8.68896e-16
8.70285e-16
8.7147e-16
8.72626e-16
8.73474e-16
8.74667e-16
8.75126e-16
8.74491e-16
8.75636e-16
8.75433e-16
8.76685e-16
8.78484e-16
8.78846e-16
8.80096e-16
8.82542e-16
8.81804e-16
8.83311e-16
8.8259e-16
8.8373e-16
8.82553e-16
8.84836e-16
8.85648e-16
8.865e-16
8.86649e-16
8.86548e-16
8.88362e-16
8.89456e-16
8.90463e-16
8.88833e-16
8.90576e-16
8.91508e-16
8.91702e-16
8.93048e-16
8.92165e-16
8.94019e-16
8.91956e-16
8.93651e-16
8.93044e-16
8.93344e-16
8.94901e-16
8.93988e-16
8.97652e-16
8.95809e-16
8.95795e-16
8.9747e-16
8.95215e-16
8.95497e-16
8.96626e-16
8.9799e-16
8.9588e-16
8.95644e-16
8.96371e-16
8.95758e-16
8.95773e-16
8.96871e-16
8.96277e-16
8.40321e-16
8.40172e-16
8.40003e-16
8.39876e-16
8.39529e-16
8.39248e-16
8.39081e-16
8.3906e-16
8.38533e-16
8.39102e-16
8.39123e-16
8.39555e-16
8.40107e-16
8.40528e-16
8.41267e-16
8.41687e-16
8.42296e-16
8.43438e-16
8.43705e-16
8.44706e-16
8.45825e-16
8.45566e-16
8.46071e-16
8.46757e-16
8.46952e-16
8.47712e-16
8.4853e-16
8.49449e-16
8.49472e-16
8.50059e-16
8.50607e-16
8.50842e-16
8.51313e-16
8.52236e-16
8.53245e-16
8.52977e-16
8.53348e-16
8.52388e-16
8.53949e-16
8.54002e-16
8.54885e-16
8.55874e-16
8.56555e-16
8.56872e-16
8.57379e-16
8.57842e-16
8.57958e-16
8.58196e-16
8.59029e-16
8.60755e-16
8.59981e-16
8.59982e-16
8.61217e-16
8.6192e-16
8.61553e-16
8.61175e-16
8.62538e-16
8.61722e-16
8.62948e-16
8.64288e-16
8.64047e-16
8.64419e-16
8.64477e-16
8.65856e-16
8.67351e-16
8.67478e-16
8.66505e-16
8.68849e-16
8.68671e-16
8.70047e-16
8.70782e-16
8.72331e-16
8.72636e-16
8.72928e-16
8.74157e-16
8.76721e-16
8.75348e-16
8.74447e-16
8.76476e-16
8.77158e-16
8.79199e-16
8.79722e-16
8.80039e-16
8.81229e-16
8.80721e-16
8.83081e-16
8.83508e-16
8.84693e-16
8.83737e-16
8.85733e-16
8.86227e-16
8.8567e-16
8.86226e-16
8.87256e-16
8.88379e-16
8.89824e-16
8.89667e-16
8.89158e-16
8.91058e-16
8.90971e-16
8.90755e-16
8.92575e-16
8.92845e-16
8.93641e-16
8.93493e-16
8.94173e-16
8.93944e-16
8.93785e-16
8.94453e-16
8.94432e-16
8.97332e-16
8.95628e-16
8.96679e-16
8.95901e-16
8.95046e-16
8.95806e-16
8.95562e-16
8.96211e-16
8.96424e-16
8.95702e-16
8.96162e-16
8.95485e-16
8.96095e-16
8.98281e-16
8.95975e-16
8.41266e-16
8.41107e-16
8.40974e-16
8.40883e-16
8.40495e-16
8.40131e-16
8.4012e-16
8.40107e-16
8.39814e-16
8.40138e-16
8.40192e-16
8.404e-16
8.41084e-16
8.41193e-16
8.41395e-16
8.42169e-16
8.4248e-16
8.43596e-16
8.44195e-16
8.45409e-16
8.45636e-16
8.46139e-16
8.46255e-16
8.47284e-16
8.47135e-16
8.48088e-16
8.48811e-16
8.49495e-16
8.49621e-16
8.50741e-16
8.5134e-16
8.51481e-16
8.51816e-16
8.51868e-16
8.54663e-16
8.53515e-16
8.53872e-16
8.53989e-16
8.54396e-16
8.53501e-16
8.55519e-16
8.56378e-16
8.56822e-16
8.5711e-16
8.57679e-16
8.58039e-16
8.59059e-16
8.59221e-16
8.58701e-16
8.60163e-16
8.59413e-16
8.58864e-16
8.60674e-16
8.60786e-16
8.60368e-16
8.61142e-16
8.61299e-16
8.61361e-16
8.62351e-16
8.63566e-16
8.635e-16
8.63784e-16
8.65141e-16
8.65214e-16
8.66532e-16
8.68165e-16
8.66933e-16
8.68242e-16
8.67989e-16
8.69649e-16
8.70851e-16
8.72401e-16
8.7266e-16
8.72217e-16
8.73268e-16
8.75394e-16
8.75272e-16
8.75976e-16
8.77201e-16
8.78722e-16
8.79326e-16
8.78678e-16
8.79547e-16
8.81344e-16
8.7991e-16
8.82759e-16
8.84448e-16
8.84759e-16
8.82661e-16
8.8541e-16
8.87939e-16
8.85871e-16
8.85881e-16
8.87647e-16
8.88868e-16
8.89989e-16
8.89577e-16
8.87911e-16
8.90361e-16
8.90748e-16
8.89243e-16
8.91835e-16
8.92229e-16
8.92483e-16
8.93135e-16
8.93414e-16
8.93463e-16
8.93946e-16
8.94232e-16
8.93837e-16
8.95193e-16
8.94466e-16
8.97741e-16
8.94519e-16
8.94576e-16
8.95432e-16
8.94876e-16
8.95003e-16
8.9655e-16
8.94883e-16
8.94113e-16
8.95752e-16
8.95449e-16
8.9591e-16
8.93861e-16
8.4215e-16
8.41988e-16
8.41848e-16
8.41659e-16
8.41528e-16
8.41339e-16
8.41116e-16
8.40988e-16
8.40895e-16
8.40909e-16
8.41132e-16
8.41406e-16
8.41874e-16
8.41789e-16
8.42361e-16
8.43174e-16
8.43862e-16
8.44316e-16
8.44373e-16
8.45253e-16
8.46272e-16
8.47953e-16
8.46983e-16
8.47524e-16
8.47943e-16
8.48707e-16
8.49432e-16
8.50352e-16
8.51235e-16
8.52518e-16
8.50803e-16
8.51711e-16
8.52885e-16
8.53169e-16
8.54132e-16
8.53674e-16
8.5519e-16
8.5489e-16
8.54815e-16
8.54253e-16
8.54067e-16
8.5724e-16
8.57767e-16
8.57417e-16
8.58155e-16
8.57489e-16
8.59011e-16
8.5902e-16
8.58413e-16
8.59079e-16
8.58923e-16
8.59454e-16
8.59273e-16
8.60445e-16
8.61717e-16
8.61509e-16
8.61888e-16
8.63121e-16
8.62967e-16
8.63634e-16
8.64496e-16
8.63773e-16
8.65752e-16
8.65532e-16
8.65905e-16
8.68039e-16
8.66768e-16
8.68106e-16
8.68647e-16
8.69498e-16
8.7073e-16
8.7163e-16
8.7145e-16
8.72262e-16
8.71746e-16
8.75583e-16
8.74372e-16
8.76552e-16
8.77064e-16
8.78988e-16
8.78992e-16
8.77909e-16
8.78205e-16
8.81612e-16
8.8156e-16
8.82988e-16
8.83295e-16
8.84255e-16
8.83756e-16
8.8484e-16
8.85837e-16
8.87124e-16
8.86335e-16
8.87651e-16
8.87483e-16
8.88928e-16
8.90647e-16
8.88615e-16
8.89256e-16
8.90677e-16
8.90215e-16
8.92236e-16
8.92244e-16
8.9141e-16
8.92907e-16
8.93006e-16
8.9279e-16
8.94181e-16
8.93975e-16
8.93693e-16
8.9425e-16
8.94317e-16
8.95994e-16
8.95689e-16
8.94076e-16
8.96056e-16
8.97062e-16
8.93539e-16
8.9621e-16
8.94757e-16
8.95269e-16
8.95631e-16
8.93764e-16
8.93989e-16
8.9852e-16
8.43021e-16
8.42917e-16
8.42798e-16
8.42631e-16
8.42347e-16
8.42192e-16
8.41981e-16
8.41826e-16
8.41868e-16
8.42083e-16
8.42059e-16
8.42254e-16
8.42518e-16
8.42637e-16
8.43136e-16
8.44378e-16
8.44514e-16
8.44166e-16
8.44829e-16
8.45814e-16
8.47723e-16
8.47015e-16
8.46551e-16
8.48487e-16
8.48752e-16
8.49693e-16
8.51107e-16
8.50429e-16
8.50799e-16
8.51433e-16
8.50911e-16
8.51732e-16
8.52097e-16
8.52427e-16
8.51496e-16
8.5396e-16
8.5545e-16
8.5419e-16
8.55069e-16
8.56497e-16
8.56487e-16
8.56821e-16
8.56651e-16
8.57174e-16
8.57498e-16
8.57478e-16
8.60358e-16
8.58981e-16
8.58003e-16
8.58007e-16
8.60546e-16
8.60589e-16
8.60929e-16
8.60016e-16
8.62064e-16
8.61491e-16
8.62426e-16
8.63397e-16
8.6308e-16
8.63097e-16
8.63245e-16
8.64827e-16
8.64939e-16
8.65498e-16
8.66448e-16
8.67776e-16
8.65924e-16
8.67999e-16
8.69159e-16
8.69117e-16
8.70794e-16
8.72278e-16
8.71297e-16