/*--------------------------------*- C++ -*----------------------------------*\
| =========                 |                                                 |
| \\      /  F ield         | OpenFOAM: The Open Source CFD Toolbox           |
|  \\    /   O peration     | Version:  2306                                  |
|   \\  /    A nd           | Website:  www.openfoam.com                      |
|    \\/     M anipulation  |                                                 |
\*---------------------------------------------------------------------------*/
// * * * * * * * * * * * * * * * * * * * * * * * * * * * * * * * * * * * * * //
FoamFile
{
    version         2;
    format          ascii;
    class           volTensorField;
    location        "0";
    object          Q_S;
}

dimensions      [ 0 0 0 0 0 0 0 ];

internalField   nonuniform List<tensor> 
15625
(
(0.707107 0.707107 5.7835e-17 0.5 -0.5 -0.707107 0.5 -0.5 0.707107)
(0.707107 0.707107 -6.50141e-14 0.212631 -0.212631 -0.953717 0.67438 -0.67438 0.300706)
(0.707107 0.707107 -4.20211e-14 0.1283 -0.1283 -0.983401 0.69537 -0.69537 0.181444)
(0.707107 0.707107 -4.65351e-14 0.0907893 -0.0907893 -0.991723 0.701254 -0.701254 0.128395)
(0.707107 0.707107 -3.30539e-14 0.0695783 -0.0695783 -0.995147 0.703675 -0.703675 0.0983986)
(0.707107 0.707107 -2.24997e-14 0.0557666 -0.0557666 -0.996885 0.704904 -0.704904 0.0788659)
(0.707107 0.707107 -1.59061e-14 0.0459556 -0.0459556 -0.997886 0.705612 -0.705612 0.0649911)
(0.707107 0.707107 -1.17665e-14 0.038601 -0.038601 -0.998509 0.706052 -0.706052 0.05459)
(0.707107 0.707107 -9.06395e-15 0.0328959 -0.0328959 -0.998917 0.706341 -0.706341 0.0465219)
(0.707107 0.707107 -7.22809e-15 0.0283701 -0.0283701 -0.999195 0.706537 -0.706537 0.0401214)
(0.707107 0.707107 -5.92691e-15 0.0247207 -0.0247207 -0.999389 0.706675 -0.706675 0.0349604)
(0.707107 0.707107 -4.9696e-15 0.0217398 -0.0217398 -0.999527 0.706773 -0.706773 0.0307448)
(0.707107 0.707107 -4.24511e-15 0.0192804 -0.0192804 -0.999628 0.706844 -0.706844 0.0272666)
(0.707107 0.707107 -3.67774e-15 0.0172292 -0.0172292 -0.999703 0.706897 -0.706897 0.0243657)
(0.707107 0.707107 -3.22566e-15 0.0154999 -0.0154999 -0.99976 0.706937 -0.706937 0.0219202)
(0.707107 0.707107 -2.86056e-15 0.014032 -0.014032 -0.999803 0.706968 -0.706968 0.0198443)
(0.707107 0.707107 -2.56582e-15 0.0127752 -0.0127752 -0.999837 0.706991 -0.706991 0.0180668)
(0.707107 0.707107 -2.32308e-15 0.0116884 -0.0116884 -0.999863 0.70701 -0.70701 0.0165299)
(0.707107 0.707107 -2.11151e-15 0.0107441 -0.0107441 -0.999885 0.707025 -0.707025 0.0151944)
(0.707107 0.707107 -1.93366e-15 0.00991713 -0.00991713 -0.999902 0.707037 -0.707037 0.0140249)
(0.707107 0.707107 -1.78532e-15 0.00918804 -0.00918804 -0.999916 0.707047 -0.707047 0.0129939)
(0.707107 0.707107 -1.65765e-15 0.00854152 -0.00854152 -0.999927 0.707055 -0.707055 0.0120795)
(0.707107 0.707107 -1.54183e-15 0.00796386 -0.00796386 -0.999937 0.707062 -0.707062 0.0112626)
(0.707107 0.707107 -1.44001e-15 0.00744683 -0.00744683 -0.999945 0.707068 -0.707068 0.0105314)
(0.707107 0.707107 -1.34711e-15 0.00698263 -0.00698263 -0.999951 0.707072 -0.707072 0.00987493)
(0.707107 0.707107 -1.26254e-15 0.00656213 -0.00656213 -0.999957 0.707076 -0.707076 0.00928026)
(0.707107 0.707107 -1.19063e-15 0.00617897 -0.00617897 -0.999962 0.70708 -0.70708 0.00873839)
(0.707107 0.707107 -1.12464e-15 0.00583058 -0.00583058 -0.999966 0.707083 -0.707083 0.00824569)
(0.707107 0.707107 -1.06042e-15 0.00551255 -0.00551255 -0.99997 0.707085 -0.707085 0.00779592)
(0.707107 0.707107 -1.00555e-15 0.00522095 -0.00522095 -0.999973 0.707088 -0.707088 0.00738353)
(0.707107 0.707107 -9.61474e-16 0.0049523 -0.0049523 -0.999975 0.707089 -0.707089 0.0070036)
(0.707107 0.707107 -9.20468e-16 0.00470346 -0.00470346 -0.999978 0.707091 -0.707091 0.0066517)
(0.707107 0.707107 -8.84947e-16 0.0044737 -0.0044737 -0.99998 0.707093 -0.707093 0.00632677)
(0.707107 0.707107 -8.55536e-16 0.004261 -0.004261 -0.999982 0.707094 -0.707094 0.00602597)
(0.707107 0.707107 -8.24443e-16 0.00406358 -0.00406358 -0.999983 0.707095 -0.707095 0.00574677)
(0.707107 0.707107 -7.87772e-16 0.00387911 -0.00387911 -0.999985 0.707096 -0.707096 0.0054859)
(0.707107 0.707107 -7.57784e-16 0.00370679 -0.00370679 -0.999986 0.707097 -0.707097 0.0052422)
(0.707107 0.707107 -7.29675e-16 0.00354652 -0.00354652 -0.999987 0.707098 -0.707098 0.00501553)
(0.707107 0.707107 -6.98067e-16 0.0033957 -0.0033957 -0.999988 0.707099 -0.707099 0.00480225)
(0.707107 0.707107 -6.71949e-16 0.0032532 -0.0032532 -0.999989 0.707099 -0.707099 0.00460072)
(0.707107 0.707107 -6.43674e-16 0.00312034 -0.00312034 -0.99999 0.7071 -0.7071 0.00441282)
(0.707107 0.707107 -6.11721e-16 0.00299542 -0.00299542 -0.999991 0.7071 -0.7071 0.00423617)
(0.707107 0.707107 -5.84441e-16 0.00287686 -0.00287686 -0.999992 0.707101 -0.707101 0.00406849)
(0.707107 0.707107 -5.67175e-16 0.00276547 -0.00276547 -0.999992 0.707101 -0.707101 0.00391097)
(0.707107 0.707107 -5.50216e-16 0.00266034 -0.00266034 -0.999993 0.707102 -0.707102 0.00376228)
(0.707107 0.707107 -5.29716e-16 0.00256003 -0.00256003 -0.999993 0.707102 -0.707102 0.00362042)
(0.707107 0.707107 -5.1633e-16 0.00246486 -0.00246486 -0.999994 0.707102 -0.707102 0.00348584)
(0.707107 0.707107 -5.10621e-16 0.00237514 -0.00237514 -0.999994 0.707103 -0.707103 0.00335896)
(0.707107 0.707107 -5.09342e-16 0.00229009 -0.00229009 -0.999995 0.707103 -0.707103 0.00323868)
(0.707107 0.707107 -5.03494e-16 0.00220843 -0.00220843 -0.999995 0.707103 -0.707103 0.0031232)
(0.707107 0.707107 -4.93292e-16 0.00213107 -0.00213107 -0.999995 0.707104 -0.707104 0.00301378)
(0.707107 0.707107 -4.8787e-16 0.0020573 -0.0020573 -0.999996 0.707104 -0.707104 0.00290946)
(0.707107 0.707107 -4.82614e-16 0.00198645 -0.00198645 -0.999996 0.707104 -0.707104 0.00280927)
(0.707107 0.707107 -4.78752e-16 0.00191944 -0.00191944 -0.999996 0.707104 -0.707104 0.0027145)
(0.707107 0.707107 -4.7765e-16 0.00185509 -0.00185509 -0.999997 0.707104 -0.707104 0.00262349)
(0.707107 0.707107 -4.70205e-16 0.0017938 -0.0017938 -0.999997 0.707105 -0.707105 0.00253681)
(0.707107 0.707107 -4.61724e-16 0.00173496 -0.00173496 -0.999997 0.707105 -0.707105 0.00245361)
(0.707107 0.707107 -4.56802e-16 0.00167799 -0.00167799 -0.999997 0.707105 -0.707105 0.00237304)
(0.707107 0.707107 -4.50364e-16 0.00162331 -0.00162331 -0.999997 0.707105 -0.707105 0.0022957)
(0.707107 0.707107 -4.50998e-16 0.00157177 -0.00157177 -0.999998 0.707105 -0.707105 0.00222281)
(0.707107 0.707107 -4.56609e-16 0.00152186 -0.00152186 -0.999998 0.707105 -0.707105 0.00215223)
(0.707107 0.707107 -4.5136e-16 0.00147305 -0.00147305 -0.999998 0.707105 -0.707105 0.00208321)
(0.707107 0.707107 -4.43189e-16 0.00142715 -0.00142715 -0.999998 0.707105 -0.707105 0.00201829)
(0.707107 0.707107 -4.38819e-16 0.00138269 -0.00138269 -0.999998 0.707105 -0.707105 0.00195542)
(0.707107 0.707107 -4.35775e-16 0.00133917 -0.00133917 -0.999998 0.707106 -0.707106 0.00189387)
(0.707107 0.707107 -4.35602e-16 0.0012979 -0.0012979 -0.999998 0.707106 -0.707106 0.0018355)
(0.707107 0.707107 -4.36483e-16 0.00125792 -0.00125792 -0.999998 0.707106 -0.707106 0.00177897)
(0.707107 0.707107 -4.3393e-16 0.00121919 -0.00121919 -0.999999 0.707106 -0.707106 0.0017242)
(0.707107 0.707107 -4.26891e-16 0.00118167 -0.00118167 -0.999999 0.707106 -0.707106 0.00167114)
(0.707107 0.707107 -4.22942e-16 0.00114533 -0.00114533 -0.999999 0.707106 -0.707106 0.00161974)
(0.707107 0.707107 -4.25176e-16 0.00111055 -0.00111055 -0.999999 0.707106 -0.707106 0.00157055)
(0.707107 0.707107 -4.23009e-16 0.00107686 -0.00107686 -0.999999 0.707106 -0.707106 0.00152291)
(0.707107 0.707107 -4.18748e-16 0.00104382 -0.00104382 -0.999999 0.707106 -0.707106 0.00147618)
(0.707107 0.707107 -4.21824e-16 0.00101181 -0.00101181 -0.999999 0.707106 -0.707106 0.00143091)
(0.707107 0.707107 -4.24105e-16 0.000981221 -0.000981221 -0.999999 0.707106 -0.707106 0.00138766)
(0.707107 0.707107 -4.1542e-16 0.000950794 -0.000950794 -0.999999 0.707106 -0.707106 0.00134463)
(0.707107 0.707107 -4.02172e-16 0.000921724 -0.000921724 -0.999999 0.707106 -0.707106 0.00130352)
(0.707107 0.707107 -3.8338e-16 0.000893583 -0.000893583 -0.999999 0.707106 -0.707106 0.00126372)
(0.707107 0.707107 -3.77803e-16 0.00086555 -0.00086555 -0.999999 0.707106 -0.707106 0.00122407)
(0.707107 0.707107 -3.89357e-16 0.000838797 -0.000838797 -0.999999 0.707106 -0.707106 0.00118624)
(0.707107 0.707107 -3.92356e-16 0.000812515 -0.000812515 -0.999999 0.707106 -0.707106 0.00114907)
(0.707107 0.707107 -3.9079e-16 0.000787073 -0.000787073 -0.999999 0.707106 -0.707106 0.00111309)
(0.707107 0.707107 -3.82864e-16 0.000762454 -0.000762454 -0.999999 0.707106 -0.707106 0.00107827)
(0.707107 0.707107 -3.73958e-16 0.000737876 -0.000737876 -0.999999 0.707106 -0.707106 0.00104351)
(0.707107 0.707107 -3.67623e-16 0.000714088 -0.000714088 -0.999999 0.707106 -0.707106 0.00100987)
(0.707107 0.707107 -3.5923e-16 0.000691071 -0.000691071 -1 0.707106 -0.707106 0.000977321)
(0.707107 0.707107 -3.43521e-16 0.000668436 -0.000668436 -1 0.707106 -0.707106 0.000945312)
(0.707107 0.707107 -3.29147e-16 0.000646176 -0.000646176 -1 0.707106 -0.707106 0.00091383)
(0.707107 0.707107 -3.19821e-16 0.00062464 -0.00062464 -1 0.707107 -0.707107 0.000883374)
(0.707107 0.707107 -3.12816e-16 0.000603454 -0.000603454 -1 0.707107 -0.707107 0.000853413)
(0.707107 0.707107 -3.22707e-16 0.000582251 -0.000582251 -1 0.707107 -0.707107 0.000823427)
(0.707107 0.707107 -3.27567e-16 0.00056174 -0.00056174 -1 0.707107 -0.707107 0.00079442)
(0.707107 0.707107 -3.22772e-16 0.000541904 -0.000541904 -1 0.707107 -0.707107 0.000766367)
(0.707107 0.707107 -3.16568e-16 0.000522378 -0.000522378 -1 0.707107 -0.707107 0.000738755)
(0.707107 0.707107 -3.08614e-16 0.000503156 -0.000503156 -1 0.707107 -0.707107 0.00071157)
(0.707107 0.707107 -2.8773e-16 0.000483888 -0.000483888 -1 0.707107 -0.707107 0.00068432)
(0.707107 0.707107 -2.60486e-16 0.000464912 -0.000464912 -1 0.707107 -0.707107 0.000657485)
(0.707107 0.707107 -2.49902e-16 0.000446901 -0.000446901 -1 0.707107 -0.707107 0.000632013)
(0.707107 0.707107 -2.47059e-16 0.000428827 -0.000428827 -1 0.707107 -0.707107 0.000606453)
(0.707107 0.707107 -2.39251e-16 0.000410687 -0.000410687 -1 0.707107 -0.707107 0.000580799)
(0.707107 0.707107 -2.33205e-16 0.000393147 -0.000393147 -1 0.707107 -0.707107 0.000555994)
(0.707107 0.707107 -2.26181e-16 0.000375536 -0.000375536 -1 0.707107 -0.707107 0.000531089)
(0.707107 0.707107 -2.13987e-16 0.000358181 -0.000358181 -1 0.707107 -0.707107 0.000506544)
(0.707107 0.707107 -2.03304e-16 0.0003414 -0.0003414 -1 0.707107 -0.707107 0.000482813)
(0.707107 0.707107 -1.95824e-16 0.000324859 -0.000324859 -1 0.707107 -0.707107 0.00045942)
(0.707107 0.707107 -1.82294e-16 0.000307916 -0.000307916 -1 0.707107 -0.707107 0.000435459)
(0.707107 0.707107 -1.64572e-16 0.000291525 -0.000291525 -1 0.707107 -0.707107 0.000412278)
(0.707107 0.707107 -1.58987e-16 0.000275366 -0.000275366 -1 0.707107 -0.707107 0.000389427)
(0.707107 0.707107 -1.46121e-16 0.000258802 -0.000258802 -1 0.707107 -0.707107 0.000366001)
(0.707107 0.707107 -1.30054e-16 0.000242776 -0.000242776 -1 0.707107 -0.707107 0.000343337)
(0.707107 0.707107 -1.28323e-16 0.000226967 -0.000226967 -1 0.707107 -0.707107 0.00032098)
(0.707107 0.707107 -1.13566e-16 0.000211065 -0.000211065 -1 0.707107 -0.707107 0.00029849)
(0.707107 0.707107 -8.64007e-17 0.000195068 -0.000195068 -1 0.707107 -0.707107 0.000275868)
(0.707107 0.707107 -8.38094e-17 0.000179584 -0.000179584 -1 0.707107 -0.707107 0.00025397)
(0.707107 0.707107 -8.65421e-17 0.000164003 -0.000164003 -1 0.707107 -0.707107 0.000231935)
(0.707107 0.707107 -8.66259e-17 0.000148321 -0.000148321 -1 0.707107 -0.707107 0.000209757)
(0.707107 0.707107 -8.09497e-17 0.000132544 -0.000132544 -1 0.707107 -0.707107 0.000187445)
(0.707107 0.707107 -5.10139e-17 0.000116962 -0.000116962 -1 0.707107 -0.707107 0.000165409)
(0.707107 0.707107 -3.17734e-17 0.000101577 -0.000101577 -1 0.707107 -0.707107 0.000143651)
(0.707107 0.707107 -2.98372e-17 8.60863e-05 -8.60863e-05 -1 0.707107 -0.707107 0.000121744)
(0.707107 0.707107 -2.64789e-17 7.04957e-05 -7.04957e-05 -1 0.707107 -0.707107 9.96959e-05)
(0.707107 0.707107 -2.7486e-17 5.48006e-05 -5.48006e-05 -1 0.707107 -0.707107 7.74997e-05)
(0.707107 0.707107 -3.02006e-17 3.92916e-05 -3.92916e-05 -1 0.707107 -0.707107 5.55667e-05)
(0.707107 0.707107 -1.29853e-17 2.36767e-05 -2.36767e-05 -1 0.707107 -0.707107 3.34838e-05)
(0.707107 0.707107 4.42897e-18 7.95714e-06 -7.95714e-06 -1 0.707107 -0.707107 1.12531e-05)
(0.707107 0.707107 6.50344e-14 0.67438 -0.67438 -0.300706 0.212631 -0.212631 0.953717)
(0.707107 0.707107 -1.92554e-17 0.5 -0.5 -0.707107 0.5 -0.5 0.707107)
(0.707107 0.707107 1.2598e-13 0.3536 -0.3536 -0.865987 0.612345 -0.612345 0.500067)
(0.707107 0.707107 5.08028e-14 0.261935 -0.261935 -0.92886 0.656803 -0.656803 0.370432)
(0.707107 0.707107 1.57059e-14 0.203308 -0.203308 -0.957774 0.677249 -0.677249 0.287521)
(0.707107 0.707107 2.19846e-15 0.163271 -0.163271 -0.972977 0.687999 -0.687999 0.2309)
(0.707107 0.707107 -2.81129e-15 0.13435 -0.13435 -0.981784 0.694226 -0.694226 0.19)
(0.707107 0.707107 -4.33587e-15 0.112578 -0.112578 -0.987245 0.698088 -0.698088 0.159209)
(0.707107 0.707107 -4.51161e-15 0.0957121 -0.0957121 -0.990797 0.700599 -0.700599 0.135357)
(0.707107 0.707107 -4.21965e-15 0.0823722 -0.0823722 -0.993192 0.702293 -0.702293 0.116492)
(0.707107 0.707107 -3.79674e-15 0.07165 -0.07165 -0.994853 0.703467 -0.703467 0.101328)
(0.707107 0.707107 -3.36747e-15 0.0629206 -0.0629206 -0.996033 0.704302 -0.704302 0.0889831)
(0.707107 0.707107 -2.99255e-15 0.0557314 -0.0557314 -0.996889 0.704907 -0.704907 0.0788161)
(0.707107 0.707107 -2.66625e-15 0.0497466 -0.0497466 -0.997522 0.705355 -0.705355 0.0703523)
(0.707107 0.707107 -2.3729e-15 0.044714 -0.044714 -0.997999 0.705692 -0.705692 0.0632352)
(0.707107 0.707107 -2.13096e-15 0.0404443 -0.0404443 -0.998363 0.705949 -0.705949 0.0571968)
(0.707107 0.707107 -1.94172e-15 0.0367911 -0.0367911 -0.998645 0.706149 -0.706149 0.0520305)
(0.707107 0.707107 -1.78109e-15 0.0336401 -0.0336401 -0.998868 0.706306 -0.706306 0.0475742)
(0.707107 0.707107 -1.62808e-15 0.0308999 -0.0308999 -0.999045 0.706431 -0.706431 0.043699)
(0.707107 0.707107 -1.50101e-15 0.0285017 -0.0285017 -0.999187 0.706532 -0.706532 0.0403075)
(0.707107 0.707107 -1.39085e-15 0.0263892 -0.0263892 -0.999303 0.706614 -0.706614 0.0373199)
(0.707107 0.707107 -1.28805e-15 0.0245161 -0.0245161 -0.999399 0.706682 -0.706682 0.0346709)
(0.707107 0.707107 -1.20437e-15 0.0228474 -0.0228474 -0.999478 0.706738 -0.706738 0.0323111)
(0.707107 0.707107 -1.12847e-15 0.0213526 -0.0213526 -0.999544 0.706784 -0.706784 0.0301971)
(0.707107 0.707107 -1.05911e-15 0.020008 -0.020008 -0.9996 0.706824 -0.706824 0.0282956)
(0.707107 0.707107 -9.95729e-16 0.0187916 -0.0187916 -0.999647 0.706857 -0.706857 0.0265753)
(0.707107 0.707107 -9.33902e-16 0.0176873 -0.0176873 -0.999687 0.706886 -0.706886 0.0250137)
(0.707107 0.707107 -8.74401e-16 0.0166831 -0.0166831 -0.999722 0.70691 -0.70691 0.0235935)
(0.707107 0.707107 -8.28314e-16 0.015765 -0.015765 -0.999751 0.706931 -0.706931 0.0222951)
(0.707107 0.707107 -7.93219e-16 0.014922 -0.014922 -0.999777 0.706949 -0.706949 0.0211029)
(0.707107 0.707107 -7.58169e-16 0.0141468 -0.0141468 -0.9998 0.706965 -0.706965 0.0200067)
(0.707107 0.707107 -7.21853e-16 0.0134314 -0.0134314 -0.99982 0.706979 -0.706979 0.0189949)
(0.707107 0.707107 -6.85876e-16 0.0127708 -0.0127708 -0.999837 0.706991 -0.706991 0.0180607)
(0.707107 0.707107 -6.646e-16 0.0121583 -0.0121583 -0.999852 0.707002 -0.707002 0.0171945)
(0.707107 0.707107 -6.46764e-16 0.0115886 -0.0115886 -0.999866 0.707012 -0.707012 0.0163887)
(0.707107 0.707107 -6.10947e-16 0.0110586 -0.0110586 -0.999878 0.70702 -0.70702 0.0156392)
(0.707107 0.707107 -5.81938e-16 0.0105642 -0.0105642 -0.999888 0.707028 -0.707028 0.01494)
(0.707107 0.707107 -5.64281e-16 0.0101016 -0.0101016 -0.999898 0.707035 -0.707035 0.0142859)
(0.707107 0.707107 -5.4757e-16 0.00966775 -0.00966775 -0.999907 0.707041 -0.707041 0.0136723)
(0.707107 0.707107 -5.23106e-16 0.00926152 -0.00926152 -0.999914 0.707046 -0.707046 0.0130978)
(0.707107 0.707107 -4.98718e-16 0.00887946 -0.00887946 -0.999921 0.707051 -0.707051 0.0125575)
(0.707107 0.707107 -4.73069e-16 0.00851977 -0.00851977 -0.999927 0.707055 -0.707055 0.0120488)
(0.707107 0.707107 -4.40496e-16 0.00818112 -0.00818112 -0.999933 0.707059 -0.707059 0.0115698)
(0.707107 0.707107 -4.28779e-16 0.00786115 -0.00786115 -0.999938 0.707063 -0.707063 0.0111173)
(0.707107 0.707107 -4.20216e-16 0.00755842 -0.00755842 -0.999943 0.707066 -0.707066 0.0106892)
(0.707107 0.707107 -4.01847e-16 0.00727146 -0.00727146 -0.999947 0.707069 -0.707069 0.0102834)
(0.707107 0.707107 -3.96225e-16 0.00700008 -0.00700008 -0.999951 0.707072 -0.707072 0.0098996)
(0.707107 0.707107 -3.9356e-16 0.0067431 -0.0067431 -0.999955 0.707075 -0.707075 0.00953619)
(0.707107 0.707107 -3.88907e-16 0.00649851 -0.00649851 -0.999958 0.707077 -0.707077 0.00919028)
(0.707107 0.707107 -3.85861e-16 0.00626581 -0.00626581 -0.999961 0.707079 -0.707079 0.0088612)
(0.707107 0.707107 -3.82443e-16 0.00604396 -0.00604396 -0.999963 0.707081 -0.707081 0.00854744)
(0.707107 0.707107 -3.82396e-16 0.00583307 -0.00583307 -0.999966 0.707083 -0.707083 0.00824921)
(0.707107 0.707107 -3.71838e-16 0.00563158 -0.00563158 -0.999968 0.707084 -0.707084 0.00796425)
(0.707107 0.707107 -3.60169e-16 0.00543895 -0.00543895 -0.99997 0.707086 -0.707086 0.00769183)
(0.707107 0.707107 -3.64187e-16 0.00525558 -0.00525558 -0.999972 0.707087 -0.707087 0.00743251)
(0.707107 0.707107 -3.62836e-16 0.00507938 -0.00507938 -0.999974 0.707089 -0.707089 0.00718333)
(0.707107 0.707107 -3.5431e-16 0.00491118 -0.00491118 -0.999976 0.70709 -0.70709 0.00694545)
(0.707107 0.707107 -3.52959e-16 0.0047501 -0.0047501 -0.999977 0.707091 -0.707091 0.00671765)
(0.707107 0.707107 -3.51792e-16 0.00459536 -0.00459536 -0.999979 0.707092 -0.707092 0.00649882)
(0.707107 0.707107 -3.442e-16 0.00444675 -0.00444675 -0.99998 0.707093 -0.707093 0.00628866)
(0.707107 0.707107 -3.49255e-16 0.00430351 -0.00430351 -0.999981 0.707094 -0.707094 0.00608608)
(0.707107 0.707107 -3.51547e-16 0.00416651 -0.00416651 -0.999983 0.707095 -0.707095 0.00589234)
(0.707107 0.707107 -3.41045e-16 0.00403453 -0.00403453 -0.999984 0.707095 -0.707095 0.00570569)
(0.707107 0.707107 -3.36671e-16 0.00390736 -0.00390736 -0.999985 0.707096 -0.707096 0.00552584)
(0.707107 0.707107 -3.36108e-16 0.00378538 -0.00378538 -0.999986 0.707097 -0.707097 0.00535333)
(0.707107 0.707107 -3.35811e-16 0.00366685 -0.00366685 -0.999987 0.707097 -0.707097 0.00518571)
(0.707107 0.707107 -3.4052e-16 0.00355274 -0.00355274 -0.999987 0.707098 -0.707098 0.00502433)
(0.707107 0.707107 -3.41188e-16 0.00344287 -0.00344287 -0.999988 0.707098 -0.707098 0.00486896)
(0.707107 0.707107 -3.37341e-16 0.0033361 -0.0033361 -0.999989 0.707099 -0.707099 0.00471796)
(0.707107 0.707107 -3.31123e-16 0.00323336 -0.00323336 -0.99999 0.707099 -0.707099 0.00457266)
(0.707107 0.707107 -3.29036e-16 0.00313451 -0.00313451 -0.99999 0.7071 -0.7071 0.00443287)
(0.707107 0.707107 -3.32134e-16 0.00303799 -0.00303799 -0.999991 0.7071 -0.7071 0.00429637)
(0.707107 0.707107 -3.26723e-16 0.00294421 -0.00294421 -0.999991 0.707101 -0.707101 0.00416375)
(0.707107 0.707107 -3.22593e-16 0.00285356 -0.00285356 -0.999992 0.707101 -0.707101 0.00403554)
(0.707107 0.707107 -3.20957e-16 0.00276597 -0.00276597 -0.999992 0.707101 -0.707101 0.00391167)
(0.707107 0.707107 -3.15806e-16 0.00268087 -0.00268087 -0.999993 0.707102 -0.707102 0.00379132)
(0.707107 0.707107 -3.06951e-16 0.00259819 -0.00259819 -0.999993 0.707102 -0.707102 0.0036744)
(0.707107 0.707107 -2.94839e-16 0.00251789 -0.00251789 -0.999994 0.707102 -0.707102 0.00356083)
(0.707107 0.707107 -2.90709e-16 0.00243943 -0.00243943 -0.999994 0.707103 -0.707103 0.00344988)
(0.707107 0.707107 -2.97381e-16 0.0023632 -0.0023632 -0.999994 0.707103 -0.707103 0.00334207)
(0.707107 0.707107 -2.99953e-16 0.00228918 -0.00228918 -0.999995 0.707103 -0.707103 0.00323739)
(0.707107 0.707107 -3.01056e-16 0.00221683 -0.00221683 -0.999995 0.707103 -0.707103 0.00313507)
(0.707107 0.707107 -2.91595e-16 0.00214612 -0.00214612 -0.999995 0.707104 -0.707104 0.00303508)
(0.707107 0.707107 -2.84678e-16 0.00207747 -0.00207747 -0.999996 0.707104 -0.707104 0.00293799)
(0.707107 0.707107 -2.79142e-16 0.00201079 -0.00201079 -0.999996 0.707104 -0.707104 0.00284369)
(0.707107 0.707107 -2.71342e-16 0.00194519 -0.00194519 -0.999996 0.707104 -0.707104 0.00275092)
(0.707107 0.707107 -2.59581e-16 0.00188065 -0.00188065 -0.999996 0.707104 -0.707104 0.00265964)
(0.707107 0.707107 -2.51707e-16 0.00181798 -0.00181798 -0.999997 0.707104 -0.707104 0.00257101)
(0.707107 0.707107 -2.459e-16 0.00175713 -0.00175713 -0.999997 0.707105 -0.707105 0.00248495)
(0.707107 0.707107 -2.42319e-16 0.00169724 -0.00169724 -0.999997 0.707105 -0.707105 0.00240026)
(0.707107 0.707107 -2.58787e-16 0.00163785 -0.00163785 -0.999997 0.707105 -0.707105 0.00231628)
(0.707107 0.707107 -2.61471e-16 0.00158021 -0.00158021 -0.999998 0.707105 -0.707105 0.00223475)
(0.707107 0.707107 -2.58812e-16 0.00152385 -0.00152385 -0.999998 0.707105 -0.707105 0.00215505)
(0.707107 0.707107 -2.55209e-16 0.00146835 -0.00146835 -0.999998 0.707105 -0.707105 0.00207656)
(0.707107 0.707107 -2.39709e-16 0.00141408 -0.00141408 -0.999998 0.707105 -0.707105 0.00199982)
(0.707107 0.707107 -2.30895e-16 0.00136022 -0.00136022 -0.999998 0.707105 -0.707105 0.00192365)
(0.707107 0.707107 -2.22772e-16 0.00130715 -0.00130715 -0.999998 0.707106 -0.707106 0.0018486)
(0.707107 0.707107 -2.07924e-16 0.00125527 -0.00125527 -0.999998 0.707106 -0.707106 0.00177522)
(0.707107 0.707107 -1.98374e-16 0.00120452 -0.00120452 -0.999999 0.707106 -0.707106 0.00170345)
(0.707107 0.707107 -1.93246e-16 0.00115412 -0.00115412 -0.999999 0.707106 -0.707106 0.00163218)
(0.707107 0.707107 -1.90924e-16 0.00110406 -0.00110406 -0.999999 0.707106 -0.707106 0.00156138)
(0.707107 0.707107 -1.84983e-16 0.00105509 -0.00105509 -0.999999 0.707106 -0.707106 0.00149212)
(0.707107 0.707107 -1.84799e-16 0.00100681 -0.00100681 -0.999999 0.707106 -0.707106 0.00142385)
(0.707107 0.707107 -1.7699e-16 0.000959207 -0.000959207 -0.999999 0.707106 -0.707106 0.00135652)
(0.707107 0.707107 -1.56894e-16 0.000911523 -0.000911523 -0.999999 0.707106 -0.707106 0.00128909)
(0.707107 0.707107 -1.42229e-16 0.000864491 -0.000864491 -0.999999 0.707106 -0.707106 0.00122258)
(0.707107 0.707107 -1.39318e-16 0.000818479 -0.000818479 -0.999999 0.707106 -0.707106 0.0011575)
(0.707107 0.707107 -1.43801e-16 0.000772723 -0.000772723 -0.999999 0.707106 -0.707106 0.0010928)
(0.707107 0.707107 -1.27515e-16 0.000727217 -0.000727217 -0.999999 0.707106 -0.707106 0.00102844)
(0.707107 0.707107 -1.11882e-16 0.000681953 -0.000681953 -1 0.707106 -0.707106 0.000964428)
(0.707107 0.707107 -1.08863e-16 0.000636934 -0.000636934 -1 0.707106 -0.707106 0.000900761)
(0.707107 0.707107 -9.98025e-17 0.000592151 -0.000592151 -1 0.707107 -0.707107 0.000837428)
(0.707107 0.707107 -7.71887e-17 0.000547947 -0.000547947 -1 0.707107 -0.707107 0.000774913)
(0.707107 0.707107 -7.37036e-17 0.000503957 -0.000503957 -1 0.707107 -0.707107 0.000712703)
(0.707107 0.707107 -7.95202e-17 0.000459831 -0.000459831 -1 0.707107 -0.707107 0.0006503)
(0.707107 0.707107 -7.50388e-17 0.000415915 -0.000415915 -1 0.707107 -0.707107 0.000588192)
(0.707107 0.707107 -6.44951e-17 0.000372204 -0.000372204 -1 0.707107 -0.707107 0.000526376)
(0.707107 0.707107 -4.10664e-17 0.000328689 -0.000328689 -1 0.707107 -0.707107 0.000464836)
(0.707107 0.707107 -2.56328e-17 0.000285026 -0.000285026 -1 0.707107 -0.707107 0.000403087)
(0.707107 0.707107 -2.29829e-17 0.000241551 -0.000241551 -1 0.707107 -0.707107 0.000341604)
(0.707107 0.707107 -2.59012e-17 0.000197922 -0.000197922 -1 0.707107 -0.707107 0.000279904)
(0.707107 0.707107 -2.44032e-17 0.000154135 -0.000154135 -1 0.707107 -0.707107 0.00021798)
(0.707107 0.707107 -3.218e-17 0.000110195 -0.000110195 -1 0.707107 -0.707107 0.00015584)
(0.707107 0.707107 -1.6513e-17 6.60952e-05 -6.60952e-05 -1 0.707107 -0.707107 9.34728e-05)
(0.707107 0.707107 6.80969e-18 2.21693e-05 -2.21693e-05 -1 0.707107 -0.707107 3.13521e-05)
(0.707107 0.707107 4.20654e-14 0.69537 -0.69537 -0.181444 0.1283 -0.1283 0.983401)
(0.707107 0.707107 -1.25991e-13 0.612345 -0.612345 -0.500067 0.3536 -0.3536 0.865987)
(0.707107 0.707107 5.88845e-18 0.5 -0.5 -0.707107 0.5 -0.5 0.707107)
(0.707107 0.707107 3.07947e-14 0.400884 -0.400884 -0.823762 0.582488 -0.582488 0.566936)
(0.707107 0.707107 2.51079e-14 0.324252 -0.324252 -0.888662 0.628379 -0.628379 0.458562)
(0.707107 0.707107 1.50469e-14 0.26622 -0.26622 -0.92642 0.655078 -0.655078 0.376491)
(0.707107 0.707107 7.65431e-15 0.22182 -0.22182 -0.949522 0.671413 -0.671413 0.313701)
(0.707107 0.707107 3.28091e-15 0.187313 -0.187313 -0.964276 0.681846 -0.681846 0.264901)
(0.707107 0.707107 9.17802e-16 0.160092 -0.160092 -0.974034 0.688746 -0.688746 0.226404)
(0.707107 0.707107 -2.90141e-16 0.138326 -0.138326 -0.980679 0.693445 -0.693445 0.195623)
(0.707107 0.707107 -8.75872e-16 0.120708 -0.120708 -0.985322 0.696728 -0.696728 0.170707)
(0.707107 0.707107 -1.1277e-15 0.106288 -0.106288 -0.988638 0.699073 -0.699073 0.150314)
(0.707107 0.707107 -1.20703e-15 0.0943611 -0.0943611 -0.991056 0.700782 -0.700782 0.133447)
(0.707107 0.707107 -1.19428e-15 0.0843968 -0.0843968 -0.992852 0.702052 -0.702052 0.119355)
(0.707107 0.707107 -1.13863e-15 0.0759914 -0.0759914 -0.994209 0.703012 -0.703012 0.107468)
(0.707107 0.707107 -1.08155e-15 0.0688383 -0.0688383 -0.99525 0.703748 -0.703748 0.0973521)
(0.707107 0.707107 -1.02791e-15 0.0627005 -0.0627005 -0.996061 0.704321 -0.704321 0.0886719)
(0.707107 0.707107 -9.5765e-16 0.0573918 -0.0573918 -0.996701 0.704774 -0.704774 0.0811643)
(0.707107 0.707107 -8.76783e-16 0.0527674 -0.0527674 -0.997212 0.705135 -0.705135 0.0746243)
(0.707107 0.707107 -8.25693e-16 0.0487111 -0.0487111 -0.997624 0.705427 -0.705427 0.0688879)
(0.707107 0.707107 -7.81306e-16 0.0451304 -0.0451304 -0.997961 0.705665 -0.705665 0.063824)
(0.707107 0.707107 -7.19953e-16 0.0419521 -0.0419521 -0.998238 0.705861 -0.705861 0.0593292)
(0.707107 0.707107 -6.73412e-16 0.039116 -0.039116 -0.998469 0.706024 -0.706024 0.0553184)
(0.707107 0.707107 -6.33654e-16 0.036572 -0.036572 -0.998662 0.70616 -0.70616 0.0517206)
(0.707107 0.707107 -5.87842e-16 0.034279 -0.034279 -0.998824 0.706275 -0.706275 0.0484778)
(0.707107 0.707107 -5.5317e-16 0.0322045 -0.0322045 -0.998962 0.706373 -0.706373 0.045544)
(0.707107 0.707107 -5.14149e-16 0.0303206 -0.0303206 -0.99908 0.706456 -0.706456 0.0428798)
(0.707107 0.707107 -4.68388e-16 0.0286017 -0.0286017 -0.999182 0.706528 -0.706528 0.040449)
(0.707107 0.707107 -4.34827e-16 0.0270302 -0.0270302 -0.999269 0.70659 -0.70659 0.0382264)
(0.707107 0.707107 -4.23455e-16 0.0255883 -0.0255883 -0.999345 0.706644 -0.706644 0.0361874)
(0.707107 0.707107 -4.14729e-16 0.0242618 -0.0242618 -0.999411 0.70669 -0.70669 0.0343113)
(0.707107 0.707107 -3.92331e-16 0.0230361 -0.0230361 -0.999469 0.706731 -0.706731 0.0325779)
(0.707107 0.707107 -3.55368e-16 0.0219027 -0.0219027 -0.99952 0.706767 -0.706767 0.0309751)
(0.707107 0.707107 -3.33689e-16 0.0208486 -0.0208486 -0.999565 0.706799 -0.706799 0.0294844)
(0.707107 0.707107 -3.3335e-16 0.0198778 -0.0198778 -0.999605 0.706827 -0.706827 0.0281115)
(0.707107 0.707107 -3.06557e-16 0.0189711 -0.0189711 -0.99964 0.706852 -0.706852 0.0268292)
(0.707107 0.707107 -2.84156e-16 0.0181122 -0.0181122 -0.999672 0.706875 -0.706875 0.0256145)
(0.707107 0.707107 -2.86594e-16 0.0173143 -0.0173143 -0.9997 0.706895 -0.706895 0.0244861)
(0.707107 0.707107 -2.93354e-16 0.016574 -0.016574 -0.999725 0.706913 -0.706913 0.0234392)
(0.707107 0.707107 -2.70561e-16 0.0158805 -0.0158805 -0.999748 0.706928 -0.706928 0.0224584)
(0.707107 0.707107 -2.44785e-16 0.0152165 -0.0152165 -0.999768 0.706943 -0.706943 0.0215194)
(0.707107 0.707107 -2.39724e-16 0.0145951 -0.0145951 -0.999787 0.706956 -0.706956 0.0206405)
(0.707107 0.707107 -2.08365e-16 0.0140217 -0.0140217 -0.999803 0.706968 -0.706968 0.0198297)
(0.707107 0.707107 -1.96097e-16 0.0134724 -0.0134724 -0.999818 0.706978 -0.706978 0.0190529)
(0.707107 0.707107 -2.05772e-16 0.0129458 -0.0129458 -0.999832 0.706988 -0.706988 0.0183082)
(0.707107 0.707107 -2.0429e-16 0.012455 -0.012455 -0.999845 0.706997 -0.706997 0.017614)
(0.707107 0.707107 -2.02459e-16 0.0119845 -0.0119845 -0.999856 0.707005 -0.707005 0.0169487)
(0.707107 0.707107 -1.95813e-16 0.0115404 -0.0115404 -0.999867 0.707013 -0.707013 0.0163205)
(0.707107 0.707107 -1.89525e-16 0.0111283 -0.0111283 -0.999876 0.707019 -0.707019 0.0157378)
(0.707107 0.707107 -1.88965e-16 0.0107266 -0.0107266 -0.999885 0.707025 -0.707025 0.0151697)
(0.707107 0.707107 -1.79272e-16 0.0103416 -0.0103416 -0.999893 0.707031 -0.707031 0.0146253)
(0.707107 0.707107 -1.71241e-16 0.00997259 -0.00997259 -0.999901 0.707036 -0.707036 0.0141034)
(0.707107 0.707107 -1.60794e-16 0.00963211 -0.00963211 -0.999907 0.707041 -0.707041 0.0136219)
(0.707107 0.707107 -1.42486e-16 0.00930605 -0.00930605 -0.999913 0.707046 -0.707046 0.0131607)
(0.707107 0.707107 -1.35275e-16 0.00898105 -0.00898105 -0.999919 0.70705 -0.70705 0.0127011)
(0.707107 0.707107 -1.3023e-16 0.0086761 -0.0086761 -0.999925 0.707054 -0.707054 0.0122699)
(0.707107 0.707107 -1.17756e-16 0.00839049 -0.00839049 -0.99993 0.707057 -0.707057 0.0118659)
(0.707107 0.707107 -1.06907e-16 0.00811742 -0.00811742 -0.999934 0.70706 -0.70706 0.0114798)
(0.707107 0.707107 -1.05591e-16 0.00785008 -0.00785008 -0.999938 0.707063 -0.707063 0.0111017)
(0.707107 0.707107 -8.62258e-17 0.00759456 -0.00759456 -0.999942 0.707066 -0.707066 0.0107403)
(0.707107 0.707107 -9.11723e-17 0.00735043 -0.00735043 -0.999946 0.707069 -0.707069 0.0103951)
(0.707107 0.707107 -1.03285e-16 0.00711123 -0.00711123 -0.999949 0.707071 -0.707071 0.0100568)