/*--------------------------------*- C++ -*----------------------------------*\
| =========                 |                                                 |
| \\      /  F ield         | OpenFOAM: The Open Source CFD Toolbox           |
|  \\    /   O peration     | Version:  2306                                  |
|   \\  /    A nd           | Website:  www.openfoam.com                      |
|    \\/     M anipulation  |                                                 |
\*---------------------------------------------------------------------------*/
// * * * * * * * * * * * * * * * * * * * * * * * * * * * * * * * * * * * * * //
FoamFile
{
    version         2;
    format          ascii;
    class           volSymmTensorField;
    location        "98.07";
    object          Rdns;
}

dimensions      [ 0 2 -2 0 0 0 0 ];

internalField   nonuniform List<symmTensor> 
15625
(
(9.13316e-08 -1.82474e-11 -1.82474e-11 1.42711e-12 -3.71148e-11 1.42711e-12)
(3.85179e-07 -4.48852e-10 -6.83823e-11 3.18923e-10 -4.21224e-11 1.58915e-12)
(6.17602e-07 -1.66569e-09 -6.48467e-11 1.70565e-09 -1.59341e-10 3.00488e-11)
(7.87549e-07 -3.35399e-09 -1.04423e-10 4.85091e-09 -3.92101e-10 7.39386e-11)
(9.25229e-07 -5.01401e-09 -1.53944e-10 1.18961e-08 -8.62403e-10 1.21043e-10)
(1.05599e-06 -6.49931e-09 -2.40005e-10 2.41511e-08 -1.53436e-09 1.69541e-10)
(1.19698e-06 -7.96881e-09 -3.46059e-10 4.33646e-08 -2.40802e-09 2.19529e-10)
(1.3599e-06 -9.81617e-09 -4.69026e-10 7.11701e-08 -3.47422e-09 2.68409e-10)
(1.55276e-06 -1.25696e-08 -6.57315e-10 1.086e-07 -4.67279e-09 3.15294e-10)
(1.78123e-06 -1.65757e-08 -9.60315e-10 1.56515e-07 -5.96452e-09 3.60614e-10)
(2.04986e-06 -2.19463e-08 -1.43776e-09 2.15486e-07 -7.31218e-09 4.04951e-10)
(2.3623e-06 -2.83551e-08 -2.17762e-09 2.85472e-07 -8.66177e-09 4.4811e-10)
(2.72118e-06 -3.51095e-08 -3.25687e-09 3.66131e-07 -9.96639e-09 4.90378e-10)
(3.1276e-06 -4.09658e-08 -4.72122e-09 4.56794e-07 -1.12005e-08 5.33255e-10)
(3.58179e-06 -4.44408e-08 -6.59976e-09 5.56722e-07 -1.23475e-08 5.7784e-10)
(4.08203e-06 -4.37068e-08 -8.8912e-09 6.65001e-07 -1.34036e-08 6.24014e-10)
(4.62553e-06 -3.69199e-08 -1.15727e-08 7.80715e-07 -1.43691e-08 6.71437e-10)
(5.20743e-06 -2.24408e-08 -1.45641e-08 9.03171e-07 -1.52541e-08 7.19571e-10)
(5.82205e-06 1.27884e-09 -1.77692e-08 1.0317e-06 -1.60703e-08 7.67749e-10)
(6.46276e-06 3.50713e-08 -2.10841e-08 1.1658e-06 -1.68225e-08 8.14736e-10)
(7.12241e-06 7.94019e-08 -2.43993e-08 1.30505e-06 -1.75125e-08 8.58991e-10)
(7.79361e-06 1.34223e-07 -2.76092e-08 1.44899e-06 -1.81358e-08 8.99253e-10)
(8.46945e-06 1.9869e-07 -3.06207e-08 1.59721e-06 -1.86786e-08 9.34798e-10)
(9.14255e-06 2.71759e-07 -3.33431e-08 1.74914e-06 -1.91252e-08 9.65013e-10)
(9.80735e-06 3.51941e-07 -3.57386e-08 1.90409e-06 -1.94587e-08 9.90128e-10)
(1.04585e-05 4.37439e-07 -3.77934e-08 2.06115e-06 -1.96611e-08 1.01078e-09)
(1.10915e-05 5.26476e-07 -3.95014e-08 2.21943e-06 -1.97198e-08 1.02775e-09)
(1.1703e-05 6.17345e-07 -4.08772e-08 2.3779e-06 -1.96394e-08 1.04211e-09)
(1.22904e-05 7.08358e-07 -4.19407e-08 2.53558e-06 -1.94278e-08 1.05502e-09)
(1.28514e-05 7.97966e-07 -4.27201e-08 2.69151e-06 -1.90968e-08 1.06742e-09)
(1.33856e-05 8.85014e-07 -4.32579e-08 2.84503e-06 -1.86637e-08 1.07989e-09)
(1.3892e-05 9.68283e-07 -4.3598e-08 2.99538e-06 -1.81468e-08 1.09295e-09)
(1.43706e-05 1.04681e-06 -4.37711e-08 3.14203e-06 -1.75614e-08 1.10693e-09)
(1.4822e-05 1.11988e-06 -4.37936e-08 3.28471e-06 -1.69195e-08 1.12192e-09)
(1.52467e-05 1.18676e-06 -4.36823e-08 3.42308e-06 -1.62336e-08 1.13799e-09)
(1.56455e-05 1.2469e-06 -4.34592e-08 3.55692e-06 -1.55121e-08 1.15519e-09)
(1.602e-05 1.29991e-06 -4.31516e-08 3.68602e-06 -1.47606e-08 1.17356e-09)
(1.63714e-05 1.3454e-06 -4.27877e-08 3.8102e-06 -1.39844e-08 1.19316e-09)
(1.67017e-05 1.38316e-06 -4.23928e-08 3.9293e-06 -1.3189e-08 1.21437e-09)
(1.70127e-05 1.41317e-06 -4.19898e-08 4.04322e-06 -1.23798e-08 1.23784e-09)
(1.73065e-05 1.43537e-06 -4.16022e-08 4.15181e-06 -1.15629e-08 1.26427e-09)
(1.75853e-05 1.44998e-06 -4.12515e-08 4.25508e-06 -1.07487e-08 1.29367e-09)
(1.78512e-05 1.45744e-06 -4.09566e-08 4.35313e-06 -9.95307e-09 1.32533e-09)
(1.81068e-05 1.45824e-06 -4.07366e-08 4.44615e-06 -9.19257e-09 1.35845e-09)
(1.8354e-05 1.45295e-06 -4.06071e-08 4.53434e-06 -8.47715e-09 1.39258e-09)
(1.85947e-05 1.44231e-06 -4.05765e-08 4.61801e-06 -7.80469e-09 1.4279e-09)
(1.88308e-05 1.42706e-06 -4.06528e-08 4.69752e-06 -7.17155e-09 1.46469e-09)
(1.90639e-05 1.40798e-06 -4.08425e-08 4.77324e-06 -6.57786e-09 1.5032e-09)
(1.9295e-05 1.38579e-06 -4.11482e-08 4.84558e-06 -6.03486e-09 1.54373e-09)
(1.95252e-05 1.36121e-06 -4.15712e-08 4.91495e-06 -5.5568e-09 1.58658e-09)
(1.97553e-05 1.33497e-06 -4.21114e-08 4.98186e-06 -5.15613e-09 1.6319e-09)
(1.99858e-05 1.30771e-06 -4.27548e-08 5.04705e-06 -4.8338e-09 1.6789e-09)
(2.0217e-05 1.28003e-06 -4.3482e-08 5.11148e-06 -4.58565e-09 1.72636e-09)
(2.04491e-05 1.25252e-06 -4.42732e-08 5.17605e-06 -4.40678e-09 1.77309e-09)
(2.06822e-05 1.2254e-06 -4.5113e-08 5.24117e-06 -4.27954e-09 1.81916e-09)
(2.09165e-05 1.19856e-06 -4.59906e-08 5.30674e-06 -4.17452e-09 1.86578e-09)
(2.1152e-05 1.17186e-06 -4.68949e-08 5.37265e-06 -4.06101e-09 1.91424e-09)
(2.13884e-05 1.14511e-06 -4.78085e-08 5.43882e-06 -3.92174e-09 1.96521e-09)
(2.16244e-05 1.118e-06 -4.87022e-08 5.5052e-06 -3.76964e-09 2.01798e-09)
(2.18584e-05 1.09023e-06 -4.95438e-08 5.57176e-06 -3.62201e-09 2.0716e-09)
(2.20897e-05 1.06147e-06 -5.03068e-08 5.6385e-06 -3.49471e-09 2.12528e-09)
(2.23197e-05 1.03151e-06 -5.10018e-08 5.70549e-06 -3.3923e-09 2.17917e-09)
(2.25513e-05 1.00016e-06 -5.16545e-08 5.77287e-06 -3.31504e-09 2.23381e-09)
(2.27874e-05 9.67236e-07 -5.2291e-08 5.84079e-06 -3.26291e-09 2.28971e-09)
(2.30297e-05 9.32598e-07 -5.29303e-08 5.90927e-06 -3.2301e-09 2.34694e-09)
(2.32789e-05 8.96158e-07 -5.3584e-08 5.97825e-06 -3.20462e-09 2.40506e-09)
(2.35356e-05 8.57833e-07 -5.42636e-08 6.04764e-06 -3.17377e-09 2.46363e-09)
(2.38001e-05 8.17727e-07 -5.49832e-08 6.11737e-06 -3.13028e-09 2.52231e-09)
(2.40722e-05 7.76484e-07 -5.57633e-08 6.18742e-06 -3.08384e-09 2.58122e-09)
(2.43516e-05 7.34871e-07 -5.66265e-08 6.2578e-06 -3.04767e-09 2.64059e-09)
(2.4638e-05 6.93664e-07 -5.75919e-08 6.32847e-06 -3.03426e-09 2.70061e-09)
(2.49303e-05 6.53355e-07 -5.86383e-08 6.3995e-06 -3.04421e-09 2.76103e-09)
(2.52273e-05 6.14284e-07 -5.97196e-08 6.47096e-06 -3.07084e-09 2.82135e-09)
(2.55279e-05 5.76791e-07 -6.07882e-08 6.54293e-06 -3.10721e-09 2.88109e-09)
(2.58309e-05 5.41056e-07 -6.18219e-08 6.61544e-06 -3.14842e-09 2.94e-09)
(2.61357e-05 5.06944e-07 -6.28451e-08 6.68843e-06 -3.19341e-09 2.99845e-09)
(2.64418e-05 4.7429e-07 -6.38872e-08 6.76181e-06 -3.24144e-09 3.05682e-09)
(2.67485e-05 4.42812e-07 -6.49676e-08 6.83553e-06 -3.29194e-09 3.11541e-09)
(2.70553e-05 4.11599e-07 -6.60432e-08 6.90956e-06 -3.34516e-09 3.17387e-09)
(2.73615e-05 3.79512e-07 -6.70471e-08 6.9839e-06 -3.40165e-09 3.23158e-09)
(2.76664e-05 3.45396e-07 -6.79144e-08 7.05853e-06 -3.46161e-09 3.28794e-09)
(2.79719e-05 3.08858e-07 -6.86702e-08 7.13329e-06 -3.51648e-09 3.34258e-09)
(2.82824e-05 2.70316e-07 -6.94342e-08 7.20782e-06 -3.54842e-09 3.39541e-09)
(2.86027e-05 2.30232e-07 -7.03347e-08 7.28176e-06 -3.53862e-09 3.44633e-09)
(2.89354e-05 1.89408e-07 -7.14596e-08 7.35473e-06 -3.47756e-09 3.49565e-09)
(2.92772e-05 1.49645e-07 -7.27679e-08 7.4263e-06 -3.38465e-09 3.54475e-09)
(2.96234e-05 1.1297e-07 -7.41936e-08 7.496e-06 -3.28534e-09 3.59529e-09)
(2.99695e-05 8.13424e-08 -7.56723e-08 7.56345e-06 -3.20573e-09 3.64878e-09)
(3.0314e-05 5.53859e-08 -7.7184e-08 7.62923e-06 -3.17049e-09 3.70485e-09)
(3.06572e-05 3.49802e-08 -7.8733e-08 7.69444e-06 -3.20386e-09 3.76205e-09)
(3.09989e-05 1.99905e-08 -8.03225e-08 7.76021e-06 -3.33026e-09 3.81889e-09)
(3.13378e-05 9.77822e-09 -8.19173e-08 7.82742e-06 -3.54676e-09 3.87454e-09)
(3.16697e-05 2.99321e-09 -8.34258e-08 7.89652e-06 -3.81069e-09 3.92916e-09)
(3.19902e-05 -1.81248e-09 -8.47491e-08 7.96796e-06 -4.07489e-09 3.98297e-09)
(3.2296e-05 -6.34232e-09 -8.58097e-08 8.0419e-06 -4.29563e-09 4.03601e-09)
(3.25874e-05 -1.3101e-08 -8.66171e-08 8.11746e-06 -4.44596e-09 4.08767e-09)
(3.28658e-05 -2.48446e-08 -8.72014e-08 8.19346e-06 -4.50212e-09 4.13714e-09)
(3.31326e-05 -4.41178e-08 -8.76027e-08 8.26874e-06 -4.44482e-09 4.1838e-09)
(3.33916e-05 -7.06336e-08 -8.79495e-08 8.34232e-06 -4.30359e-09 4.22897e-09)
(3.36477e-05 -1.02472e-07 -8.84224e-08 8.41335e-06 -4.13655e-09 4.27512e-09)
(3.3906e-05 -1.37624e-07 -8.92047e-08 8.48096e-06 -4.00331e-09 4.32471e-09)
(3.41699e-05 -1.73933e-07 -9.0351e-08 8.54545e-06 -3.93997e-09 4.37831e-09)
(3.44412e-05 -2.09082e-07 -9.17593e-08 8.60853e-06 -3.95373e-09 4.43411e-09)
(3.47211e-05 -2.40667e-07 -9.33149e-08 8.67204e-06 -4.05026e-09 4.49007e-09)
(3.50089e-05 -2.67114e-07 -9.49108e-08 8.73734e-06 -4.21765e-09 4.54394e-09)
(3.52974e-05 -2.88879e-07 -9.64615e-08 8.80454e-06 -4.40226e-09 4.59283e-09)
(3.55786e-05 -3.06742e-07 -9.78833e-08 8.87359e-06 -4.54288e-09 4.63374e-09)
(3.58463e-05 -3.21386e-07 -9.91194e-08 8.94404e-06 -4.58343e-09 4.66483e-09)
(3.61027e-05 -3.33004e-07 -1.00246e-07 9.01379e-06 -4.49839e-09 4.68983e-09)
(3.63528e-05 -3.41651e-07 -1.01379e-07 9.0802e-06 -4.27035e-09 4.71417e-09)
(3.66012e-05 -3.47247e-07 -1.02624e-07 9.14084e-06 -3.89147e-09 4.74286e-09)
(3.68469e-05 -3.48602e-07 -1.03975e-07 9.19546e-06 -3.43268e-09 4.77621e-09)
(3.70865e-05 -3.43973e-07 -1.0537e-07 9.24484e-06 -3.00431e-09 4.81227e-09)
(3.73164e-05 -3.31728e-07 -1.06745e-07 9.2898e-06 -2.7115e-09 4.84889e-09)
(3.75342e-05 -3.12344e-07 -1.08027e-07 9.33096e-06 -2.54596e-09 4.88243e-09)
(3.77378e-05 -2.87817e-07 -1.09136e-07 9.36876e-06 -2.41835e-09 4.90808e-09)
(3.7925e-05 -2.60113e-07 -1.09992e-07 9.40364e-06 -2.23642e-09 4.92122e-09)
(3.80916e-05 -2.28908e-07 -1.10561e-07 9.43482e-06 -1.93955e-09 4.9232e-09)
(3.82308e-05 -1.91722e-07 -1.10854e-07 9.46039e-06 -1.49642e-09 4.92107e-09)
(3.83361e-05 -1.4633e-07 -1.10884e-07 9.47845e-06 -8.8297e-10 4.92209e-09)
(3.84093e-05 -1.00867e-07 -1.10743e-07 9.48879e-06 -2.53208e-10 4.92875e-09)
(3.84608e-05 -7.47609e-08 -1.10599e-07 9.49314e-06 4.46378e-11 4.93832e-09)
(3.85018e-05 -8.7532e-08 -1.10628e-07 9.49338e-06 -3.4046e-10 4.94775e-09)
(3.85353e-05 -1.29957e-07 -1.10834e-07 9.49147e-06 -1.28606e-09 4.95497e-09)
(3.85553e-05 -1.60267e-07 -1.11033e-07 9.48949e-06 -2.1336e-09 4.95903e-09)
(3.85179e-07 -6.83823e-11 -4.48852e-10 1.58915e-12 -4.21224e-11 3.18923e-10)
(2.07117e-06 -2.31802e-09 -2.31802e-09 1.70385e-09 -5.63212e-10 1.70385e-09)
(3.72769e-06 -9.28881e-09 -3.72193e-09 1.08835e-08 -3.34011e-09 4.01164e-09)
(5.10707e-06 -1.99094e-08 -5.02693e-09 3.57605e-08 -9.90893e-09 7.00361e-09)
(6.32131e-06 -3.14388e-08 -6.55163e-09 8.86411e-08 -2.12111e-08 1.03455e-08)
(7.52006e-06 -4.33115e-08 -8.5123e-09 1.81106e-07 -3.73765e-08 1.38282e-08)
(8.82363e-06 -5.67764e-08 -1.09683e-08 3.2537e-07 -5.8157e-08 1.72936e-08)
(1.03236e-05 -7.45612e-08 -1.43378e-08 5.32385e-07 -8.29528e-08 2.06482e-08)
(1.20882e-05 -1.00229e-07 -1.96179e-08 8.10424e-07 -1.10822e-07 2.38667e-08)
(1.41695e-05 -1.35721e-07 -2.82218e-08 1.16522e-06 -1.40763e-07 2.6941e-08)
(1.66103e-05 -1.81058e-07 -4.1844e-08 1.60019e-06 -1.71738e-07 2.988e-08)
(1.94455e-05 -2.32819e-07 -6.25168e-08 2.11503e-06 -2.02689e-07 3.27276e-08)
(2.27002e-05 -2.84751e-07 -9.2018e-08 2.70735e-06 -2.32702e-07 3.55375e-08)
(2.63855e-05 -3.26383e-07 -1.315e-07 3.37238e-06 -2.61201e-07 3.83744e-08)
(3.05045e-05 -3.4556e-07 -1.81657e-07 4.10499e-06 -2.87807e-07 4.12884e-08)
(3.50416e-05 -3.27823e-07 -2.42289e-07 4.8991e-06 -3.12441e-07 4.42923e-08)
(3.99714e-05 -2.58708e-07 -3.1269e-07 5.74856e-06 -3.35106e-07 4.73807e-08)
(4.52499e-05 -1.25597e-07 -3.90904e-07 6.64859e-06 -3.55972e-07 5.0505e-08)
(5.08256e-05 8.33517e-08 -4.7461e-07 7.5945e-06 -3.75229e-07 5.36033e-08)
(5.66381e-05 3.74331e-07 -5.61236e-07 8.58264e-06 -3.92942e-07 5.65984e-08)
(6.26222e-05 7.50636e-07 -6.48047e-07 9.60998e-06 -4.09113e-07 5.9404e-08)
(6.87109e-05 1.21167e-06 -7.32447e-07 1.0673e-05 -4.23627e-07 6.19464e-08)
(7.48415e-05 1.75085e-06 -8.12213e-07 1.17685e-05 -4.36193e-07 6.41763e-08)
(8.09472e-05 2.36e-06 -8.85174e-07 1.28923e-05 -4.46487e-07 6.60509e-08)
(8.69775e-05 3.02755e-06 -9.50325e-07 1.40395e-05 -4.5419e-07 6.75846e-08)
(9.28841e-05 3.7395e-06 -1.00717e-06 1.5204e-05 -4.58973e-07 6.88198e-08)
(9.86248e-05 4.48187e-06 -1.05544e-06 1.63798e-05 -4.60602e-07 6.98059e-08)
(0.000104171 5.24091e-06 -1.09544e-06 1.75598e-05 -4.59128e-07 7.06083e-08)
(0.000109497 6.00298e-06 -1.12762e-06 1.87372e-05 -4.54661e-07 7.12977e-08)
(0.000114585 6.75533e-06 -1.15261e-06 1.99053e-05 -4.47415e-07 7.19345e-08)
(0.000119428 7.48816e-06 -1.17136e-06 2.1059e-05 -4.37747e-07 7.25646e-08)
(0.000124018 8.19108e-06 -1.18485e-06 2.21924e-05 -4.26042e-07 7.32321e-08)
(0.000128356 8.85578e-06 -1.19384e-06 2.33014e-05 -4.1263e-07 7.39623e-08)
(0.000132447 9.47614e-06 -1.19883e-06 2.43832e-05 -3.97779e-07 7.47598e-08)
(0.000136294 1.00457e-05 -1.20035e-06 2.54347e-05 -3.81763e-07 7.56284e-08)
(0.000139908 1.05599e-05 -1.19897e-06 2.64537e-05 -3.64785e-07 7.65735e-08)
(0.000143299 1.10155e-05 -1.19534e-06 2.74381e-05 -3.46989e-07 7.76019e-08)
(0.000146481 1.14093e-05 -1.19014e-06 2.83861e-05 -3.28516e-07 7.87216e-08)
(0.000149469 1.17395e-05 -1.18396e-06 2.92963e-05 -3.09522e-07 7.99555e-08)
(0.000152282 1.20055e-05 -1.17739e-06 3.01674e-05 -2.90164e-07 8.13411e-08)
(0.000154938 1.22068e-05 -1.17098e-06 3.09982e-05 -2.70617e-07 8.29157e-08)
(0.000157456 1.23446e-05 -1.16529e-06 3.17882e-05 -2.51113e-07 8.46826e-08)
(0.000159858 1.24222e-05 -1.16084e-06 3.2538e-05 -2.31965e-07 8.66024e-08)
(0.000162163 1.24432e-05 -1.15814e-06 3.32484e-05 -2.13491e-07 8.86334e-08)
(0.000164392 1.2412e-05 -1.15763e-06 3.39207e-05 -1.95919e-07 9.0752e-08)
(0.000166561 1.23349e-05 -1.15958e-06 3.45569e-05 -1.79297e-07 9.2969e-08)
(0.000168688 1.22182e-05 -1.16425e-06 3.51592e-05 -1.63651e-07 9.52993e-08)
(0.000170785 1.20685e-05 -1.17184e-06 3.57302e-05 -1.49059e-07 9.77556e-08)
(0.000172865 1.18913e-05 -1.1823e-06 3.62735e-05 -1.35734e-07 1.00345e-07)
(0.000174933 1.16925e-05 -1.19558e-06 3.67924e-05 -1.23938e-07 1.03072e-07)
(0.000176999 1.14778e-05 -1.21155e-06 3.72911e-05 -1.13886e-07 1.05937e-07)
(0.000179065 1.12521e-05 -1.22994e-06 3.77742e-05 -1.05554e-07 1.08893e-07)
(0.000181136 1.10198e-05 -1.25041e-06 3.82475e-05 -9.88055e-08 1.11877e-07)
(0.000183213 1.07856e-05 -1.27258e-06 3.87163e-05 -9.34947e-08 1.14826e-07)
(0.000185298 1.05517e-05 -1.29609e-06 3.91836e-05 -8.92986e-08 1.17742e-07)
(0.00018739 1.03177e-05 -1.32059e-06 3.96501e-05 -8.57348e-08 1.20685e-07)
(0.00018949 1.00835e-05 -1.34571e-06 4.01163e-05 -8.22998e-08 1.23721e-07)
(0.000191596 9.84805e-06 -1.37097e-06 4.05825e-05 -7.86899e-08 1.26885e-07)
(0.000193696 9.60874e-06 -1.39574e-06 4.10485e-05 -7.50495e-08 1.30149e-07)
(0.000195778 9.36277e-06 -1.41931e-06 4.1514e-05 -7.15875e-08 1.33476e-07)
(0.000197834 9.10734e-06 -1.44111e-06 4.19791e-05 -6.84996e-08 1.36835e-07)
(0.000199879 8.84102e-06 -1.46144e-06 4.24442e-05 -6.58771e-08 1.40226e-07)
(0.000201939 8.5628e-06 -1.48092e-06 4.29104e-05 -6.37712e-08 1.43667e-07)
(0.000204039 8.27168e-06 -1.5002e-06 4.33785e-05 -6.22296e-08 1.47174e-07)
(0.000206194 7.96725e-06 -1.51972e-06 4.38489e-05 -6.11673e-08 1.50745e-07)
(0.000208411 7.64957e-06 -1.53977e-06 4.43216e-05 -6.03589e-08 1.54359e-07)
(0.000210694 7.31881e-06 -1.56058e-06 4.47962e-05 -5.95647e-08 1.57995e-07)
(0.000213048 6.97631e-06 -1.58245e-06 4.52725e-05 -5.86389e-08 1.61637e-07)
(0.00021547 6.62662e-06 -1.60574e-06 4.57505e-05 -5.77312e-08 1.65297e-07)
(0.000217956 6.27507e-06 -1.63083e-06 4.62298e-05 -5.70524e-08 1.68988e-07)
(0.000220502 5.92708e-06 -1.65802e-06 4.67105e-05 -5.6804e-08 1.72722e-07)
(0.000223099 5.5865e-06 -1.68695e-06 4.71928e-05 -5.70206e-08 1.76482e-07)
(0.00022574 5.25633e-06 -1.71677e-06 4.76777e-05 -5.76363e-08 1.80229e-07)
(0.000228415 4.93961e-06 -1.74662e-06 4.81659e-05 -5.85811e-08 1.83925e-07)
(0.000231114 4.63787e-06 -1.77603e-06 4.86577e-05 -5.97909e-08 1.87555e-07)
(0.000233829 4.34978e-06 -1.80523e-06 4.91529e-05 -6.12128e-08 1.91148e-07)
(0.000236553 4.07369e-06 -1.83456e-06 4.96511e-05 -6.27937e-08 1.94735e-07)
(0.000239278 3.80707e-06 -1.86415e-06 5.01517e-05 -6.44849e-08 1.98342e-07)
(0.000242001 3.54264e-06 -1.89319e-06 5.0655e-05 -6.62726e-08 2.01938e-07)
(0.000244718 3.27138e-06 -1.92051e-06 5.11611e-05 -6.8154e-08 2.05471e-07)
(0.000247428 2.98414e-06 -1.94497e-06 5.16701e-05 -7.01195e-08 2.08888e-07)
(0.000250147 2.67813e-06 -1.96722e-06 5.2181e-05 -7.19835e-08 2.12171e-07)
(0.000252913 2.35731e-06 -1.98984e-06 5.26912e-05 -7.33739e-08 2.15331e-07)
(0.000255766 2.02602e-06 -2.01557e-06 5.31984e-05 -7.38988e-08 2.18384e-07)
(0.000258728 1.69092e-06 -2.0463e-06 5.36998e-05 -7.33539e-08 2.21363e-07)
(0.000261771 1.36543e-06 -2.08123e-06 5.41928e-05 -7.21214e-08 2.24347e-07)
(0.000264853 1.06449e-06 -2.11902e-06 5.46747e-05 -7.07047e-08 2.27427e-07)
(0.000267937 8.0253e-07 -2.15834e-06 5.51433e-05 -6.96237e-08 2.30686e-07)
(0.000271007 5.8343e-07 -2.1986e-06 5.5602e-05 -6.93992e-08 2.34098e-07)
(0.000274064 4.05226e-07 -2.2396e-06 5.60576e-05 -7.05613e-08 2.37582e-07)
(0.000277109 2.65828e-07 -2.28108e-06 5.6517e-05 -7.36446e-08 2.41047e-07)
(0.000280126 1.59983e-07 -2.32218e-06 5.69856e-05 -7.86162e-08 2.44443e-07)
(0.00028308 7.80173e-08 -2.36106e-06 5.74669e-05 -8.46176e-08 2.47766e-07)
(0.000285935 9.61269e-09 -2.39578e-06 5.79642e-05 -9.06981e-08 2.51017e-07)
(0.00028866 -5.72579e-08 -2.42479e-06 5.84788e-05 -9.59599e-08 2.54192e-07)
(0.00029126 -1.39928e-07 -2.44826e-06 5.90053e-05 -9.97848e-08 2.57265e-07)
(0.000293744 -2.57403e-07 -2.46674e-06 5.95363e-05 -1.01603e-07 2.60203e-07)
(0.000296126 -4.27204e-07 -2.48105e-06 6.00643e-05 -1.00943e-07 2.62986e-07)
(0.00029844 -6.46946e-07 -2.49407e-06 6.05832e-05 -9.8419e-08 2.657e-07)
(0.000300729 -9.02769e-07 -2.50992e-06 6.10872e-05 -9.52808e-08 2.68495e-07)
(0.00030304 -1.18019e-06 -2.53278e-06 6.15707e-05 -9.28103e-08 2.71523e-07)
(0.000305404 -1.46432e-06 -2.56388e-06 6.20353e-05 -9.17728e-08 2.7481e-07)
(0.000307834 -1.73995e-06 -2.60082e-06 6.24912e-05 -9.23007e-08 2.78229e-07)
(0.000310343 -1.99129e-06 -2.64092e-06 6.29496e-05 -9.44907e-08 2.81638e-07)
(0.00031292 -2.20762e-06 -2.68175e-06 6.34185e-05 -9.80448e-08 2.84887e-07)
(0.000315503 -2.3905e-06 -2.7216e-06 6.38976e-05 -1.01728e-07 2.87818e-07)
(0.000318019 -2.54347e-06 -2.75881e-06 6.43856e-05 -1.04135e-07 2.90263e-07)
(0.000320414 -2.66931e-06 -2.79225e-06 6.48791e-05 -1.04056e-07 2.92124e-07)
(0.000322708 -2.76746e-06 -2.82341e-06 6.53666e-05 -1.01335e-07 2.93627e-07)
(0.000324947 -2.83637e-06 -2.85453e-06 6.58339e-05 -9.61116e-08 2.95091e-07)
(0.000327173 -2.87386e-06 -2.88763e-06 6.6268e-05 -8.86342e-08 2.96814e-07)
(0.000329377 -2.87318e-06 -2.92248e-06 6.6666e-05 -7.99731e-08 2.98811e-07)
(0.000331526 -2.82524e-06 -2.95771e-06 6.703e-05 -7.16132e-08 3.00963e-07)
(0.000333586 -2.72164e-06 -2.9919e-06 6.73625e-05 -6.49775e-08 3.0314e-07)
(0.000335535 -2.56645e-06 -3.02362e-06 6.76656e-05 -6.00533e-08 3.05129e-07)
(0.000337359 -2.3727e-06 -3.05134e-06 6.79412e-05 -5.5805e-08 3.06656e-07)
(0.00033904 -2.15301e-06 -3.07356e-06 6.81913e-05 -5.11385e-08 3.07455e-07)
(0.000340541 -1.90116e-06 -3.08937e-06 6.84119e-05 -4.4898e-08 3.0761e-07)
(0.000341798 -1.59312e-06 -3.09846e-06 6.85938e-05 -3.58651e-08 3.07529e-07)
(0.000342749 -1.20727e-06 -3.10058e-06 6.87278e-05 -2.29492e-08 3.07638e-07)
(0.000343409 -8.16057e-07 -3.09765e-06 6.88135e-05 -9.29096e-09 3.08078e-07)
(0.000343871 -5.94552e-07 -3.09387e-06 6.88601e-05 -2.64523e-09 3.08681e-07)
(0.000344237 -7.18842e-07 -3.09355e-06 6.88779e-05 -1.08434e-08 3.09263e-07)
(0.000344533 -1.10934e-06 -3.09721e-06 6.88779e-05 -3.11634e-08 3.09702e-07)
(0.000344709 -1.39698e-06 -3.10102e-06 6.88719e-05 -4.89328e-08 3.09944e-07)
(6.17602e-07 -6.48467e-11 -1.66569e-09 3.00488e-11 -1.59341e-10 1.70565e-09)
(3.72769e-06 -3.72193e-09 -9.28881e-09 4.01164e-09 -3.34011e-09 1.08835e-08)
(7.29424e-06 -1.6751e-08 -1.6751e-08 2.62057e-08 -1.64024e-08 2.62057e-08)
(1.06445e-05 -3.83414e-08 -2.35991e-08 8.72322e-08 -4.50935e-08 4.58639e-08)
(1.38541e-05 -6.4186e-08 -3.07179e-08 2.14096e-07 -9.23606e-08 6.80129e-08)
(1.71742e-05 -9.36148e-08 -3.90081e-08 4.33711e-07 -1.58776e-07 9.10938e-08)
(2.08498e-05 -1.29775e-07 -4.9529e-08 7.7306e-07 -2.43085e-07 1.14041e-07)
(2.50908e-05 -1.7859e-07 -6.48683e-08 1.25603e-06 -3.42757e-07 1.36224e-07)
(3.00676e-05 -2.47079e-07 -8.96765e-08 1.90106e-06 -4.54262e-07 1.5733e-07)
(3.59182e-05 -3.38005e-07 -1.30479e-07 2.72009e-06 -5.73598e-07 1.77314e-07)
(4.27608e-05 -4.49279e-07 -1.94829e-07 3.71976e-06 -6.96658e-07 1.96297e-07)
(5.06916e-05 -5.70225e-07 -2.9113e-07 4.89901e-06 -8.19623e-07 2.14599e-07)
(5.97802e-05 -6.83588e-07 -4.26635e-07 6.25239e-06 -9.3922e-07 2.32587e-07)
(7.00576e-05 -7.62547e-07 -6.06004e-07 7.76945e-06 -1.05335e-06 2.50667e-07)
(8.15317e-05 -7.76754e-07 -8.31865e-07 9.43915e-06 -1.16059e-06 2.69146e-07)
(9.4158e-05 -6.91342e-07 -1.10287e-06 1.12487e-05 -1.2606e-06 2.88077e-07)
(0.000107866 -4.71848e-07 -1.41564e-06 1.31853e-05 -1.3533e-06 3.07407e-07)
(0.000122532 -8.91197e-08 -1.76194e-06 1.52385e-05 -1.43911e-06 3.26829e-07)
(0.000138016 4.8389e-07 -2.13209e-06 1.73983e-05 -1.5185e-06 3.45959e-07)
(0.000154151 1.2607e-06 -2.51535e-06 1.96564e-05 -1.59153e-06 3.64328e-07)
(0.000170757 2.24789e-06 -2.90031e-06 2.2006e-05 -1.65806e-06 3.81416e-07)
(0.000187652 3.44306e-06 -3.27621e-06 2.44388e-05 -1.71755e-06 3.96786e-07)
(0.000204663 4.83012e-06 -3.63397e-06 2.69476e-05 -1.76894e-06 4.10165e-07)
(0.000221608 6.38927e-06 -3.96474e-06 2.95229e-05 -1.81104e-06 4.2132e-07)
(0.000238349 8.09287e-06 -4.26408e-06 3.21544e-05 -1.84279e-06 4.3034e-07)
(0.000254751 9.90764e-06 -4.52948e-06 3.48292e-05 -1.86312e-06 4.37473e-07)
(0.000270701 1.18002e-05 -4.75936e-06 3.75347e-05 -1.87128e-06 4.43012e-07)
(0.000286117 1.37371e-05 -4.95465e-06 4.02562e-05 -1.86736e-06 4.47353e-07)
(0.000300931 1.56849e-05 -5.1169e-06 4.29795e-05 -1.85164e-06 4.50924e-07)
(0.000315087 1.76119e-05 -5.24835e-06 4.569e-05 -1.8248e-06 4.54104e-07)
(0.00032857 1.94931e-05 -5.35259e-06 4.83764e-05 -1.78807e-06 4.57186e-07)
(0.000341358 2.13015e-05 -5.43328e-06 5.10254e-05 -1.74278e-06 4.60461e-07)
(0.000353448 2.30158e-05 -5.49353e-06 5.36267e-05 -1.69012e-06 4.64103e-07)
(0.000364855 2.46198e-05 -5.53579e-06 5.61729e-05 -1.63106e-06 4.68165e-07)
(0.00037559 2.60969e-05 -5.56256e-06 5.86554e-05 -1.56665e-06 4.72691e-07)
(0.000385678 2.74351e-05 -5.57641e-06 6.10679e-05 -1.49772e-06 4.77733e-07)
(0.00039515 2.86264e-05 -5.57998e-06 6.34046e-05 -1.42494e-06 4.83341e-07)
(0.000404043 2.9663e-05 -5.57601e-06 6.56603e-05 -1.34901e-06 4.89575e-07)
(0.000412397 3.054e-05 -5.56698e-06 6.78305e-05 -1.27064e-06 4.96562e-07)
(0.000420262 3.12554e-05 -5.55514e-06 6.99119e-05 -1.19054e-06 5.04505e-07)
(0.000427687 3.1807e-05 -5.5428e-06 7.19008e-05 -1.10948e-06 5.13604e-07)
(0.000434726 3.21972e-05 -5.53235e-06 7.37956e-05 -1.02836e-06 5.23882e-07)
(0.000441434 3.24331e-05 -5.5262e-06 7.55961e-05 -9.4831e-07 5.35143e-07)
(0.000447871 3.25225e-05 -5.52686e-06 7.73031e-05 -8.70455e-07 5.47178e-07)
(0.000454093 3.24761e-05 -5.53643e-06 7.89183e-05 -7.95721e-07 5.59872e-07)
(0.000460141 3.23094e-05 -5.5562e-06 8.04456e-05 -7.24614e-07 5.73283e-07)
(0.000466062 3.20389e-05 -5.58743e-06 8.18901e-05 -6.5759e-07 5.87491e-07)
(0.000471895 3.16809e-05 -5.63099e-06 8.32571e-05 -5.95183e-07 6.0255e-07)
(0.000477666 3.12487e-05 -5.68644e-06 8.45547e-05 -5.38046e-07 6.18438e-07)
(0.000483395 3.0756e-05 -5.75306e-06 8.57908e-05 -4.86929e-07 6.35102e-07)
(0.000489103 3.02161e-05 -5.83012e-06 8.69746e-05 -4.42434e-07 6.52478e-07)
(0.000494801 2.96408e-05 -5.91669e-06 8.81154e-05 -4.04402e-07 6.70329e-07)
(0.000500499 2.90407e-05 -6.01183e-06 8.92239e-05 -3.72313e-07 6.88354e-07)
(0.000506204 2.84272e-05 -6.11448e-06 9.03102e-05 -3.45619e-07 7.06254e-07)
(0.000511921 2.78059e-05 -6.22319e-06 9.13813e-05 -3.23325e-07 7.24027e-07)
(0.000517646 2.71781e-05 -6.33604e-06 9.24403e-05 -3.0403e-07 7.41943e-07)
(0.000523375 2.65449e-05 -6.45107e-06 9.34906e-05 -2.86277e-07 7.60288e-07)
(0.000529101 2.59052e-05 -6.56617e-06 9.45345e-05 -2.69116e-07 7.79234e-07)
(0.000534803 2.52527e-05 -6.67907e-06 9.55723e-05 -2.52753e-07 7.98695e-07)
(0.000540457 2.45806e-05 -6.78737e-06 9.6604e-05 -2.37556e-07 8.18544e-07)
(0.000546051 2.38822e-05 -6.88918e-06 9.763e-05 -2.23881e-07 8.38673e-07)
(0.000551624 2.31546e-05 -6.98579e-06 9.86518e-05 -2.11988e-07 8.59072e-07)
(0.00055724 2.23963e-05 -7.07982e-06 9.96715e-05 -2.02104e-07 8.79778e-07)
(0.000562965 2.16058e-05 -7.17389e-06 0.000100691 -1.94444e-07 9.0082e-07)
(0.000568838 2.07836e-05 -7.26979e-06 0.000101712 -1.88752e-07 9.22166e-07)
(0.000574878 1.99322e-05 -7.36843e-06 0.000102734 -1.8427e-07 9.43723e-07)
(0.0005811 1.90541e-05 -7.47067e-06 0.000103758 -1.80195e-07 9.65385e-07)
(0.000587513 1.81542e-05 -7.5774e-06 0.000104782 -1.76033e-07 9.87086e-07)
(0.000594107 1.72428e-05 -7.68959e-06 0.000105808 -1.72276e-07 1.00889e-06)
(0.000600869 1.63316e-05 -7.80822e-06 0.000106834 -1.69619e-07 1.03088e-06)
(0.000607783 1.54325e-05 -7.9341e-06 0.00010786 -1.68729e-07 1.05314e-06)
(0.000614836 1.45542e-05 -8.06615e-06 0.000108889 -1.69751e-07 1.07553e-06)
(0.000622011 1.37035e-05 -8.2021e-06 0.000109921 -1.72518e-07 1.09782e-06)
(0.000629293 1.28874e-05 -8.33958e-06 0.00011096 -1.76852e-07 1.11975e-06)
(0.000636658 1.21093e-05 -8.47689e-06 0.000112006 -1.82574e-07 1.14124e-06)
(0.000644068 1.1366e-05 -8.61353e-06 0.000113059 -1.8951e-07 1.16245e-06)
(0.000651487 1.06533e-05 -8.7491e-06 0.000114118 -1.9748e-07 1.1836e-06)
(0.000658878 9.96512e-06 -8.88289e-06 0.000115185 -2.06294e-07 1.20483e-06)
(0.000666246 9.28322e-06 -9.0125e-06 0.000116258 -2.15734e-07 1.22595e-06)
(0.0006736 8.58519e-06 -9.13481e-06 0.000117338 -2.25561e-07 1.24664e-06)
(0.000680956 7.84828e-06 -9.24689e-06 0.000118426 -2.35514e-07 1.26656e-06)
(0.000688363 7.06642e-06 -9.35186e-06 0.000119519 -2.44885e-07 1.28562e-06)
(0.000695906 6.25128e-06 -9.45919e-06 0.000120612 -2.52493e-07 1.30394e-06)
(0.000703674 5.41557e-06 -9.57897e-06 0.0001217 -2.57102e-07 1.32166e-06)
(0.00071172 4.57654e-06 -9.71819e-06 0.000122779 -2.58092e-07 1.33901e-06)
(0.000719971 3.76431e-06 -9.87392e-06 0.000123844 -2.56763e-07 1.35644e-06)
(0.000728334 3.01199e-06 -1.00413e-05 0.000124889 -2.54818e-07 1.37446e-06)
(0.000736713 2.35129e-06 -1.02155e-05 0.00012591 -2.54013e-07 1.39351e-06)
(0.000745067 1.78829e-06 -1.03936e-05 0.000126915 -2.56117e-07 1.41348e-06)
(0.000753381 1.31469e-06 -1.05736e-05 0.000127916 -2.62937e-07 1.43389e-06)
(0.000761638 9.21874e-07 -1.07534e-05 0.000128926 -2.76294e-07 1.45425e-06)
(0.000769796 5.96555e-07 -1.09295e-05 0.000129955 -2.96082e-07 1.47424e-06)
(0.000777774 3.19081e-07 -1.10961e-05 0.00013101 -3.19389e-07 1.49376e-06)
(0.000785484 6.87091e-08 -1.12471e-05 0.000132097 -3.42992e-07 1.51273e-06)
(0.000792861 -1.78705e-07 -1.13776e-05 0.000133219 -3.63825e-07 1.53107e-06)
(0.000799914 -4.57867e-07 -1.1488e-05 0.000134366 -3.79702e-07 1.54869e-06)
(0.000806672 -8.06791e-07 -1.15801e-05 0.000135523 -3.88583e-07 1.56551e-06)
(0.000813172 -1.2605e-06 -1.16564e-05 0.000136677 -3.88766e-07 1.58152e-06)
(0.000819494 -1.81381e-06 -1.17278e-05 0.000137816 -3.82333e-07 1.59724e-06)
(0.00082575 -2.43833e-06 -1.18098e-05 0.000138929 -3.7358e-07 1.61354e-06)
(0.000832053 -3.10444e-06 -1.19182e-05 0.000140007 -3.66911e-07 1.63131e-06)
(0.000838482 -3.7823e-06 -1.20575e-05 0.000141053 -3.64904e-07 1.65063e-06)
(0.00084507 -4.44209e-06 -1.22185e-05 0.000142084 -3.67897e-07 1.67064e-06)
(0.000851851 -5.05295e-06 -1.23906e-05 0.00014312 -3.761e-07 1.69039e-06)
(0.000858803 -5.59247e-06 -1.25649e-05 0.000144173 -3.88348e-07 1.70899e-06)
(0.000865762 -6.0589e-06 -1.27356e-05 0.00014524 -4.00216e-07 1.72568e-06)
(0.000872546 -6.45373e-06 -1.28977e-05 0.000146315 -4.06678e-07 1.73973e-06)
(0.00087901 -6.77719e-06 -1.30476e-05 0.00014739 -4.0359e-07 1.75072e-06)
(0.00088521 -7.02437e-06 -1.31898e-05 0.000148447 -3.91336e-07 1.75984e-06)
(0.000891264 -7.18882e-06 -1.3331e-05 0.000149467 -3.71607e-07 1.76875e-06)
(0.000897275 -7.26339e-06 -1.34774e-05 0.00015043 -3.46241e-07 1.77897e-06)
(0.000903219 -7.23689e-06 -1.36275e-05 0.000151328 -3.17852e-07 1.79055e-06)
(0.000909013 -7.09604e-06 -1.37762e-05 0.000152159 -2.89472e-07 1.80284e-06)
(0.000914569 -6.82895e-06 -1.39181e-05 0.00015292 -2.64036e-07 1.81511e-06)
(0.000919836 -6.44654e-06 -1.40489e-05 0.000153612 -2.41922e-07 1.82625e-06)
(0.000924782 -5.97628e-06 -1.41645e-05 0.000154235 -2.21696e-07 1.83487e-06)
(0.000929374 -5.44412e-06 -1.42611e-05 0.000154791 -2.01728e-07 1.83962e-06)
(0.0009335 -4.82572e-06 -1.43346e-05 0.000155274 -1.78311e-07 1.84094e-06)
(0.000936979 -4.04936e-06 -1.43812e-05 0.000155674 -1.45776e-07 1.84097e-06)
(0.000939629 -3.04973e-06 -1.43972e-05 0.000155982 -9.8857e-08 1.84194e-06)
(0.000941471 -2.02232e-06 -1.43888e-05 0.000156197 -4.87551e-08 1.84459e-06)
(0.000942745 -1.44698e-06 -1.43726e-05 0.000156335 -2.46289e-08 1.84809e-06)
(0.000943706 -1.80682e-06 -1.43655e-05 0.000156411 -5.59312e-08 1.8515e-06)
(0.000944443 -2.89281e-06 -1.43717e-05 0.000156441 -1.31792e-07 1.85415e-06)
(0.000944863 -3.7123e-06 -1.43805e-05 0.000156446 -1.95684e-07 1.85565e-06)
(7.87549e-07 -1.04423e-10 -3.35399e-09 7.39386e-11 -3.92101e-10 4.85091e-09)
(5.10707e-06 -5.02693e-09 -1.99094e-08 7.00361e-09 -9.90893e-09 3.57605e-08)
(1.06445e-05 -2.35991e-08 -3.83414e-08 4.58639e-08 -4.50935e-08 8.72322e-08)
(1.63945e-05 -5.6381e-08 -5.6381e-08 1.5267e-07 -1.18168e-07 1.5267e-07)
(2.23321e-05 -9.86871e-08 -7.49799e-08 3.70914e-07 -2.35149e-07 2.26083e-07)
(2.87516e-05 -1.50367e-07 -9.61816e-08 7.44136e-07 -3.96787e-07 3.02492e-07)
(3.59997e-05 -2.16666e-07 -1.23663e-07 1.31457e-06 -5.99734e-07 3.78365e-07)
(4.4406e-05 -3.06194e-07 -1.6523e-07 2.11904e-06 -8.37883e-07 4.51504e-07)
(5.42587e-05 -4.28023e-07 -2.33664e-07 3.18583e-06 -1.10297e-06 5.20764e-07)