/*--------------------------------*- C++ -*----------------------------------*\
  =========                 |
  \\      /  F ield         | OpenFOAM: The Open Source CFD Toolbox
   \\    /   O peration     | Website:  https://openfoam.org
    \\  /    A nd           | Version:  6
     \\/     M anipulation  |
\*---------------------------------------------------------------------------*/
FoamFile
{
    version     2.0;
    format      ascii;
    class       volSymmTensorField;
    location    "98.07";
    object      turbulenceProperties:R;
}
// * * * * * * * * * * * * * * * * * * * * * * * * * * * * * * * * * * * * * //

dimensions      [0 2 -2 0 0 0 0];

internalField   nonuniform List<symmTensor> 
15625
(
(9.133157367177836e-08 -1.824736051816468e-11 -1.8247360518164582e-11 1.4271119207540985e-12 -3.7114785412692245e-11 1.4271119207540135e-12)
(3.8517856448539926e-07 -4.4885200414736977e-10 -6.838228616721206e-11 3.189230860781602e-10 -4.212241117450425e-11 1.589150578186134e-12)
(6.176018151900039e-07 -1.6656895820023653e-09 -6.484674720761164e-11 1.7056477278271545e-09 -1.5934122993846065e-10 3.004884714658439e-11)
(7.87548766560202e-07 -3.3539921559557924e-09 -1.0442296829110733e-10 4.850905029141626e-09 -3.921010159511635e-10 7.39385593284123e-11)
(9.252285605836281e-07 -5.0140114191686176e-09 -1.5394423973305285e-10 1.1896120837356313e-08 -8.624029461917116e-10 1.2104338339264234e-10)
(1.055987219775267e-06 -6.499311450621169e-09 -2.4000465996496846e-10 2.4151140561022003e-08 -1.5343562816486337e-09 1.695411475461229e-10)
(1.1969842040503195e-06 -7.968808900578554e-09 -3.4605893169143715e-10 4.3364649451586896e-08 -2.408023224048344e-09 2.195294152227432e-10)
(1.359904493116575e-06 -9.816172479301472e-09 -4.69026382988507e-10 7.117011537195708e-08 -3.4742194810321433e-09 2.68408675514916e-10)
(1.5527605837077333e-06 -1.2569646604045889e-08 -6.573153336199744e-10 1.0860022534834127e-07 -4.672785040868656e-09 3.1529365667921413e-10)
(1.781230371189894e-06 -1.6575672288962968e-08 -9.6031487399215e-10 1.565148591849139e-07 -5.9645222023031015e-09 3.6061395698030657e-10)
(2.0498574716788622e-06 -2.1946288230777954e-08 -1.4377637703120198e-09 2.154856842619894e-07 -7.312178398004526e-09 4.049513593308594e-10)
(2.3623019301437168e-06 -2.835510013843879e-08 -2.1776211519881047e-09 2.854719772871839e-07 -8.661771312639571e-09 4.4811023537219315e-10)
(2.7211820866536197e-06 -3.510949930955595e-08 -3.2568701455674334e-09 3.661308211998971e-07 -9.96638921777184e-09 4.903781320735434e-10)
(3.1275955732795622e-06 -4.096577688308212e-08 -4.721219381976659e-09 4.567937380793979e-07 -1.1200487881026126e-08 5.332552201186718e-10)
(3.581789601745101e-06 -4.4440812441917325e-08 -6.5997554105635854e-09 5.567215199166493e-07 -1.2347516234375373e-08 5.778399015183918e-10)
(4.082026720336697e-06 -4.370676405103552e-08 -8.891198762996099e-09 6.650008331138881e-07 -1.3403595429722607e-08 6.240141890241397e-10)
(4.6255278173763465e-06 -3.691990228233732e-08 -1.1572709032272478e-08 7.807148578073193e-07 -1.4369080300392815e-08 6.714369452774136e-10)
(5.207426127678191e-06 -2.244075098235128e-08 -1.456405364322847e-08 9.031711042702241e-07 -1.5254131774189392e-08 7.195712329144596e-10)
(5.82205086181951e-06 1.2788361610233237e-09 -1.776921765978676e-08 1.0317004210975915e-06 -1.607027378806262e-08 7.677489634562638e-10)
(6.4627632307025935e-06 3.507133974168671e-08 -2.108409413425648e-08 1.1657955406481179e-06 -1.6822513454678066e-08 8.147359927880194e-10)
(7.122410709892589e-06 7.940186684579134e-08 -2.4399250519136126e-08 1.3050484584037412e-06 -1.7512519748192092e-08 8.589910013140724e-10)
(7.793612958730302e-06 1.3422280864738004e-07 -2.7609217727401914e-08 1.4489905050986698e-06 -1.813583736022159e-08 8.992526427142915e-10)
(8.469447687178161e-06 1.9869002520232967e-07 -3.0620677251879884e-08 1.5972050050216332e-06 -1.8678614584636282e-08 9.34798426373373e-10)
(9.142548875727453e-06 2.7175868227582493e-07 -3.3343076463449876e-08 1.749137052681051e-06 -1.9125196552113013e-08 9.65012841983409e-10)
(9.807346706285832e-06 3.5194052350415407e-07 -3.573862393198165e-08 1.90408771060286e-06 -1.9458726954405978e-08 9.901277267319337e-10)
(1.045854533627984e-05 4.374393621498643e-07 -3.77933925465459e-08 2.061151245091445e-06 -1.966110495374708e-08 1.0107831116736328e-09)
(1.1091506993968634e-05 5.26476285234126e-07 -3.950137256647557e-08 2.2194270018984672e-06 -1.9719796059221233e-08 1.0277509145541252e-09)
(1.170302380440218e-05 6.173452951532004e-07 -4.0877170362449015e-08 2.377896829290273e-06 -1.9639367091895715e-08 1.0421078807716957e-09)
(1.2290414241757311e-05 7.083583561804025e-07 -4.1940658176102684e-08 2.535579010391285e-06 -1.9427773317123055e-08 1.055021407557033e-09)
(1.285143907889687e-05 7.979657598609509e-07 -4.27200876426379e-08 2.6915082048153735e-06 -1.9096829333367194e-08 1.0674230265437926e-09)
(1.3385581888116142e-05 8.850139202857389e-07 -4.325792432086511e-08 2.8450314614863404e-06 -1.8663712088489497e-08 1.079885654275732e-09)
(1.3892017822299807e-05 9.682832111132516e-07 -4.359800038904524e-08 2.9953803274522445e-06 -1.8146771442014863e-08 1.092949112607055e-09)
(1.4370637906671918e-05 1.046807015906946e-06 -4.3771050850139425e-08 3.1420309744803893e-06 -1.756135639791709e-08 1.1069326676696305e-09)
(1.4822034097991767e-05 1.1198792191095038e-06 -4.379359186072539e-08 3.2847100351649187e-06 -1.6919506860865915e-08 1.121922323184604e-09)
(1.5246655995486292e-05 1.186758572409986e-06 -4.368225936976541e-08 3.4230827562507912e-06 -1.6233580044943244e-08 1.137987954775047e-09)
(1.564552657040491e-05 1.2469025561038583e-06 -4.345918201115476e-08 3.556921534035027e-06 -1.5512115465567534e-08 1.1551876071223686e-09)
(1.6019951802791605e-05 1.2999095350142926e-06 -4.315161732964396e-08 3.6860165781429963e-06 -1.476060816496183e-08 1.1735595310585809e-09)
(1.6371434007228322e-05 1.3454002175206634e-06 -4.278766802797374e-08 3.810197188336978e-06 -1.398440305376541e-08 1.1931632762939537e-09)
(1.6701682268049675e-05 1.3831643112816249e-06 -4.239276618989729e-08 3.929304085664647e-06 -1.3189000614581368e-08 1.2143679490990063e-09)
(1.7012709074544275e-05 1.4131650709097473e-06 -4.198977221021607e-08 4.043224187485787e-06 -1.2379843161643852e-08 1.2378441104086552e-09)
(1.7306518171896806e-05 1.435371795237805e-06 -4.160222944482449e-08 4.151813900084079e-06 -1.1562941893096468e-08 1.2642661881123815e-09)
(1.7585296401488343e-05 1.4499801764638096e-06 -4.125152942600609e-08 4.255078874080702e-06 -1.074866798563232e-08 1.293673813895499e-09)
(1.785124716015908e-05 1.457440818083503e-06 -4.095659702422476e-08 4.3531338600372765e-06 -9.953067074855471e-09 1.3253295150705019e-09)
(1.8106768024240267e-05 1.4582406302467734e-06 -4.07366133669005e-08 4.446150779358799e-06 -9.192569191138566e-09 1.3584455505958606e-09)
(1.8354010211507442e-05 1.452954218891038e-06 -4.060710775076314e-08 4.534338899390676e-06 -8.477150093309742e-09 1.3925750981427407e-09)
(1.8594738900294762e-05 1.4423066168108185e-06 -4.057652266654044e-08 4.618009750733434e-06 -7.804692463841281e-09 1.4279012206895147e-09)
(1.8830810410250793e-05 1.4270602306645986e-06 -4.065276875751007e-08 4.697522782106504e-06 -7.171552331174319e-09 1.4646869918735224e-09)
(1.9063858331464278e-05 1.4079841446838264e-06 -4.084249961155193e-08 4.773235260062874e-06 -6.577860746057203e-09 1.5031963151329794e-09)
(1.9295028813999883e-05 1.3857876851317486e-06 -4.114817947246721e-08 4.845580967047319e-06 -6.034857040028374e-09 1.543732130297224e-09)
(1.9525183166108932e-05 1.3612086387904327e-06 -4.1571233599192894e-08 4.914951556502398e-06 -5.556803234896235e-09 1.5865750371061084e-09)
(1.9755329829552206e-05 1.3349717645041377e-06 -4.21113769594337e-08 4.9818561757495925e-06 -5.1561316818080176e-09 1.6319022754415972e-09)
(1.998584029266071e-05 1.307714498300635e-06 -4.275476783571864e-08 5.047054550322179e-06 -4.833801425523762e-09 1.6789005858560348e-09)
(2.0217021095347382e-05 1.2800292865762488e-06 -4.34820465187052e-08 5.111483337931045e-06 -4.585646177697877e-09 1.7263641623808222e-09)
(2.0449087452140876e-05 1.2525189642518445e-06 -4.4273169462370556e-08 5.176054750597845e-06 -4.406780490251395e-09 1.7730945369914404e-09)
(2.0682227289974232e-05 1.2254039906371289e-06 -4.511301002822473e-08 5.241170943454387e-06 -4.2795412488074896e-09 1.8191595487328317e-09)
(2.0916515080816413e-05 1.1985639386158009e-06 -4.599063427979886e-08 5.3067407718649055e-06 -4.174523560606727e-09 1.8657756261569486e-09)
(2.1152022256927133e-05 1.1718615676605235e-06 -4.6894852513817634e-08 5.3726528195365635e-06 -4.061007620090716e-09 1.9142365517412147e-09)
(2.1388388967549392e-05 1.145107480837612e-06 -4.780851725669444e-08 5.438816754151406e-06 -3.921743315219942e-09 1.965210565446134e-09)
(2.1624354848669473e-05 1.1180019018879734e-06 -4.8702214806686006e-08 5.505200600488726e-06 -3.76964056451658e-09 2.0179770821749224e-09)
(2.18584375293189e-05 1.0902293835926638e-06 -4.9543801894394414e-08 5.571760398141778e-06 -3.6220075933173944e-09 2.07159604708278e-09)
(2.2089657764511713e-05 1.0614704192236632e-06 -5.0306769930293584e-08 5.638495080056856e-06 -3.4947085455375332e-09 2.1252793760976175e-09)
(2.231968213283306e-05 1.031511223487804e-06 -5.10018133854378e-08 5.705485747324814e-06 -3.392304253948733e-09 2.1791734513329353e-09)
(2.2551329216482836e-05 1.000162688710446e-06 -5.1654539808320534e-08 5.7728744075695494e-06 -3.3150350254917843e-09 2.23381019223373e-09)
(2.2787436301623567e-05 9.672360179656607e-07 -5.229104481168295e-08 5.84079468038125e-06 -3.262906173460469e-09 2.289713022497541e-09)
(2.3029737975113635e-05 9.325982648661698e-07 -5.29302941230661e-08 5.909270654129413e-06 -3.2301012958740544e-09 2.346936166778175e-09)
(2.327891975820058e-05 8.961580078721236e-07 -5.358397633627976e-08 5.978245222418534e-06 -3.2046150634567112e-09 2.405064864859281e-09)
(2.3535572153813152e-05 8.578327256126248e-07 -5.4263642534659644e-08 6.047636508387853e-06 -3.173773888363687e-09 2.46363296560361e-09)
(2.3800057591283406e-05 8.177265549227554e-07 -5.4983202473959226e-08 6.117367266099122e-06 -3.1302808791374486e-09 2.522306821129056e-09)
(2.4072183321835897e-05 7.764836420061096e-07 -5.576333258602823e-08 6.187423241642552e-06 -3.0838382813418596e-09 2.5812197277676965e-09)
(2.4351632459075042e-05 7.348711381391625e-07 -5.662654643398284e-08 6.257798266064797e-06 -3.047669293342724e-09 2.6405949559806347e-09)
(2.463795783564768e-05 6.936640020230849e-07 -5.759190927518591e-08 6.328473592663421e-06 -3.0342613291391103e-09 2.7006072295415526e-09)
(2.4930274974826935e-05 6.533553043105064e-07 -5.8638326155921656e-08 6.3995012515770055e-06 -3.0442056602294763e-09 2.7610262212471225e-09)
(2.5227342352503118e-05 6.142839139432904e-07 -5.971962642462561e-08 6.4709578825014595e-06 -3.0708398652864525e-09 2.821354661878334e-09)
(2.552791073158344e-05 5.767906303641718e-07 -6.078821493386945e-08 6.5429311024811385e-06 -3.1072079789854094e-09 2.8810864957648486e-09)
(2.5830892748080768e-05 5.41055507109416e-07 -6.182192946299409e-08 6.615439271835251e-06 -3.1484200860374318e-09 2.9400044073484128e-09)
(2.613571611110774e-05 5.069439964356123e-07 -6.284505910042737e-08 6.688425118798713e-06 -3.1934059901017657e-09 2.9984490597697887e-09)
(2.6441798665941677e-05 4.7429029390416897e-07 -6.388721078875061e-08 6.761811210278248e-06 -3.241444346263504e-09 3.056819766832932e-09)
(2.6748534375641385e-05 4.4281217116120246e-07 -6.496761870216466e-08 6.835526479606528e-06 -3.2919431045874707e-09 3.115409771178102e-09)
(2.7055344882852597e-05 4.1159877304797775e-07 -6.604321384929315e-08 6.909564779250118e-06 -3.345163879932108e-09 3.1738700892944634e-09)
(2.7361478229304784e-05 3.795116728187875e-07 -6.704711199450305e-08 6.983901816170008e-06 -3.401649175413893e-09 3.231582040178886e-09)
(2.766637162816735e-05 3.4539627263971844e-07 -6.791443444564712e-08 7.058532314007056e-06 -3.4616080188775154e-09 3.287938580174429e-09)
(2.7971898725263315e-05 3.0885836725477156e-07 -6.867019560569824e-08 7.133289120583329e-06 -3.516476187958989e-09 3.3425823253881257e-09)
(2.8282435219740524e-05 2.703162609921883e-07 -6.943419824929171e-08 7.207817148679603e-06 -3.5484188412797665e-09 3.395407953056467e-09)
(2.8602686734105056e-05 2.3023150718517485e-07 -7.033467849291465e-08 7.281759541887523e-06 -3.538621734200157e-09 3.4463328215806534e-09)
(2.8935411393530197e-05 1.8940751999054288e-07 -7.145958483883704e-08 7.354734670130702e-06 -3.4775552351691536e-09 3.495646897981933e-09)
(2.927717294603794e-05 1.4964532835341956e-07 -7.27679337073574e-08 7.426295239874095e-06 -3.3846475651904353e-09 3.5447462938944333e-09)
(2.9623392804699785e-05 1.1296977860036601e-07 -7.419358458882826e-08 7.495997129469151e-06 -3.2853373522667215e-09 3.5952949292410305e-09)
(2.9969509440940358e-05 8.134239748726391e-08 -7.567234254226726e-08 7.563450905592666e-06 -3.205732250263875e-09 3.648784666704171e-09)
(3.031403308741561e-05 5.5385928963381546e-08 -7.718402467204136e-08 7.629226486677931e-06 -3.170490868330002e-09 3.7048465600837476e-09)
(3.065716307473814e-05 3.498022483170137e-08 -7.873299896686494e-08 7.694439317736904e-06 -3.2038578670414743e-09 3.7620486042687506e-09)
(3.099893309696802e-05 1.9990522714194765e-08 -8.032249306730397e-08 7.760212560533685e-06 -3.330255789953776e-09 3.818888714051165e-09)
(3.13377818150682e-05 9.778217846944642e-09 -8.191726405141523e-08 7.82741898006927e-06 -3.5467613842702903e-09 3.8745435973498374e-09)
(3.166967877491931e-05 2.9932149759974865e-09 -8.34257852520618e-08 7.896523017584557e-06 -3.810692978984882e-09 3.929162862111615e-09)
(3.1990239111295566e-05 -1.8124837851257732e-09 -8.4749116696619e-08 7.9679641153501e-06 -4.074894210767579e-09 3.982970502443682e-09)
(3.2296021641336e-05 -6.342317536379561e-09 -8.580972795764478e-08 8.041903894170636e-06 -4.2956310735168556e-09 4.036012714035661e-09)
(3.258744518651981e-05 -1.3101046159469774e-08 -8.661713455860903e-08 8.117459073059149e-06 -4.445955105062812e-09 4.0876693905520585e-09)
(3.286577743333047e-05 -2.4844601435367762e-08 -8.720135422981725e-08 8.19346007766734e-06 -4.502122240891631e-09 4.137136196886941e-09)
(3.313261094315601e-05 -4.411783883645473e-08 -8.760272537961002e-08 8.268739163479469e-06 -4.444817976657118e-09 4.183798052544744e-09)
(3.3391606903246394e-05 -7.063364775524554e-08 -8.794946542027155e-08 8.342323319933429e-06 -4.303585499595085e-09 4.228972196548264e-09)
(3.36477182376035e-05 -1.024722443901538e-07 -8.842240843726776e-08 8.41334965389268e-06 -4.136548683123927e-09 4.275116439497904e-09)
(3.390599715301351e-05 -1.376240498530552e-07 -8.920468638870144e-08 8.480958226645475e-06 -4.00331423690086e-09 4.324714271279151e-09)
(3.416994037069534e-05 -1.7393275774546546e-07 -9.035095362277478e-08 8.545447305841544e-06 -3.939968244181851e-09 4.378312939067563e-09)
(3.444115594329479e-05 -2.0908167680627447e-07 -9.175929560953979e-08 8.608529000988626e-06 -3.953733848959486e-09 4.4341052439634764e-09)
(3.472112180278393e-05 -2.4066691690428415e-07 -9.331494795536984e-08 8.672038647717716e-06 -4.050262304981056e-09 4.490073697700564e-09)
(3.500888720267555e-05 -2.6711405544548566e-07 -9.491082710809446e-08 8.73734187406212e-06 -4.217650974552293e-09 4.543938548313425e-09)
(3.529739231570876e-05 -2.888786134381456e-07 -9.646154993214092e-08 8.804540164484142e-06 -4.402264120780183e-09 4.592831587317649e-09)
(3.55786396857806e-05 -3.06741811225109e-07 -9.78833170422314e-08 8.873590132251888e-06 -4.5428757800120414e-09 4.633744929930844e-09)
(3.584626681653783e-05 -3.2138635305807454e-07 -9.911935529471895e-08 8.944044543014216e-06 -4.583430312681895e-09 4.66482818679679e-09)
(3.61026776384261e-05 -3.3300397567069127e-07 -1.002459336172155e-07 9.013793754371955e-06 -4.498391895117778e-09 4.689825485453299e-09)
(3.6352833496048256e-05 -3.4165126476436203e-07 -1.0137915672628572e-07 9.08020058260934e-06 -4.270353906568011e-09 4.714170040502916e-09)
(3.660121236442563e-05 -3.4724683877793317e-07 -1.0262443506534947e-07 9.140842667353338e-06 -3.8914654293634735e-09 4.742860487833373e-09)
(3.6846913552381556e-05 -3.486019751181551e-07 -1.0397492682641577e-07 9.195456321581737e-06 -3.43268042430013e-09 4.776207849990392e-09)
(3.708650086195586e-05 -3.4397330391341677e-07 -1.053696963215173e-07 9.244841068180196e-06 -3.0043056855316336e-09 4.812267047557856e-09)
(3.7316443484694226e-05 -3.3172838924356363e-07 -1.0674461076143099e-07 9.289803362700862e-06 -2.7115006672635553e-09 4.848892671260398e-09)
(3.753418990210457e-05 -3.1234412675912087e-07 -1.0802689404985372e-07 9.330957138917694e-06 -2.545964662356796e-09 4.882428514263696e-09)
(3.773775009948468e-05 -2.878167292184266e-07 -1.0913618482148355e-07 9.368763145335414e-06 -2.418354028947147e-09 4.908083788441202e-09)
(3.7925027281993905e-05 -2.6011258585371696e-07 -1.0999223709958127e-07 9.40364400855531e-06 -2.2364249507797554e-09 4.921216107101998e-09)
(3.809156580604736e-05 -2.2890770424489754e-07 -1.1056132664452997e-07 9.434818443043455e-06 -1.939548201983115e-09 4.923204407556162e-09)
(3.823078463314435e-05 -1.9172152035317884e-07 -1.1085363397278564e-07 9.46039405333756e-06 -1.49642406390981e-09 4.921074750659271e-09)
(3.833613395633445e-05 -1.4633037364300025e-07 -1.108842454109216e-07 9.47844549885472e-06 -8.829696446602887e-10 4.922094196460244e-09)
(3.840927065599127e-05 -1.0086734014490517e-07 -1.107426321796473e-07 9.488789656841614e-06 -2.532083494893038e-10 4.9287524297605004e-09)
(3.846079874479869e-05 -7.476086491674367e-08 -1.1059928127265862e-07 9.49314445676059e-06 4.463781247011131e-11 4.938316343159843e-09)
(3.850180588506407e-05 -8.753201990491723e-08 -1.1062777877537778e-07 9.49338082074846e-06 -3.4046017886628963e-10 4.947746101633408e-09)
(3.853533951831591e-05 -1.2995668026568798e-07 -1.1083379371164487e-07 9.49146931728406e-06 -1.2860642418341227e-09 4.954971799481898e-09)
(3.8555325170505586e-05 -1.6026716103805138e-07 -1.1103267370155753e-07 9.489486371827763e-06 -2.1336017417011483e-09 4.959030444567254e-09)
(3.851785644853993e-07 -6.8382286167212e-11 -4.488520041473694e-10 1.589150578186304e-12 -4.2122411174504247e-11 3.189230860781596e-10)
(2.0711736241528867e-06 -2.3180222077200743e-09 -2.318022207720074e-09 1.7038540101374416e-09 -5.63211986995105e-10 1.7038540101374393e-09)
(3.7276921877370674e-06 -9.288812482785337e-09 -3.72192903234522e-09 1.0883543663960614e-08 -3.3401108149072077e-09 4.0116423063494226e-09)
(5.1070727725326775e-06 -1.990937872101865e-08 -5.026927607229604e-09 3.576048187267883e-08 -9.908927120393704e-09 7.003606180817e-09)
(6.321312481215642e-06 -3.143877551903927e-08 -6.551629870219957e-09 8.864113191221396e-08 -2.12110935457048e-08 1.0345507067971506e-08)
(7.520057434589974e-06 -4.331150077089024e-08 -8.512300575684659e-09 1.811057911147569e-07 -3.7376450652410274e-08 1.3828193429460182e-08)
(8.823628161370333e-06 -5.6776418147741206e-08 -1.0968276191118729e-08 3.2537022098181496e-07 -5.815701532192406e-08 1.7293638705814525e-08)
(1.0323597349252102e-05 -7.456117508061086e-08 -1.4337751363045284e-08 5.323854724859928e-07 -8.295279536166654e-08 2.0648157094875142e-08)
(1.2088244928336409e-05 -1.0022922266437269e-07 -1.9617936704058736e-08 8.104241030708413e-07 -1.1082151700811821e-07 2.3866740094298068e-08)
(1.4169461349876919e-05 -1.3572064610390883e-07 -2.8221822905509504e-08 1.1652233894893323e-06 -1.4076269945370054e-07 2.6941039535858786e-08)
(1.6610307654776314e-05 -1.8105811236635976e-07 -4.184401862535873e-08 1.600189567066174e-06 -1.7173824526092491e-07 2.988002095069992e-08)
(1.9445511876959227e-05 -2.3281923238853998e-07 -6.251683427356193e-08 2.115026813546708e-06 -2.0268940874735786e-07 3.2727553302141966e-08)
(2.2700207164628774e-05 -2.847509394186668e-07 -9.201801935061844e-08 2.7073492303899087e-06 -2.3270187494845499e-07 3.553754626145374e-08)
(2.638552463280975e-05 -3.2638314257420327e-07 -1.3150044012014714e-07 3.372382713156629e-06 -2.6120095999689967e-07 3.837441042582015e-08)
(3.0504526952996562e-05 -3.4556039532575085e-07 -1.816569881636164e-07 4.104993766438838e-06 -2.878068177330391e-07 4.128840738363627e-08)
(3.5041555295627337e-05 -3.278226003606008e-07 -2.422885955177457e-07 4.899099156012752e-06 -3.12440867591479e-07 4.4292268011378806e-08)
(3.997140669306181e-05 -2.5870831018171104e-07 -3.126901585234068e-07 5.748558069147997e-06 -3.35105922333517e-07 4.7380727006028964e-08)
(4.5249915674006935e-05 -1.2559680200234803e-07 -3.9090373927493403e-07 6.6485873128143255e-06 -3.5597189863789636e-07 5.050501177110197e-08)
(5.082560215198288e-05 8.335169742285689e-08 -4.7461027369026353e-07 7.594500613583326e-06 -3.752288196694636e-07 5.3603326964223627e-08)
(5.663807144737492e-05 3.7433065783748857e-07 -5.612357274825391e-07 8.582636947150976e-06 -3.929420831809994e-07 5.659835064332822e-08)
(6.26221970970181e-05 7.506356467729333e-07 -6.480467248746328e-07 9.609978464667978e-06 -4.0911331883648353e-07 5.9403994571821916e-08)
(6.871090694101195e-05 1.2116712135591583e-06 -7.324472891580696e-07 1.0673006959689333e-05 -4.236273477244238e-07 6.19463865105789e-08)
(7.484148881194719e-05 1.7508468871601546e-06 -8.122126426938089e-07 1.1768502949925309e-05 -4.3619323973264283e-07 6.417633109841456e-08)
(8.094720736371087e-05 2.360002771614951e-06 -8.851737923140525e-07 1.2892267343927931e-05 -4.464870500148106e-07 6.605091304687527e-08)
(8.69774627785272e-05 3.0275533288423007e-06 -9.503245407847816e-07 1.4039477853427362e-05 -4.541902462073738e-07 6.75846371792837e-08)
(9.288405941958431e-05 3.7394966154863333e-06 -1.0071713380560207e-06 1.5204012043690036e-05 -4.5897349066358255e-07 6.881978662381428e-08)
(9.86248186604584e-05 4.481865259533979e-06 -1.0554396776716217e-06 1.6379780585966413e-05 -4.606016187397768e-07 6.980587075476462e-08)
(0.0001041706841556782 5.240913591099552e-06 -1.095436848558483e-06 1.755976826756985e-05 -4.59127503087228e-07 7.060832262547566e-08)
(0.00010949740128645881 6.002982809753839e-06 -1.1276150157810228e-06 1.873723131087241e-05 -4.5466134238430983e-07 7.129765523347105e-08)
(0.00011458463809261507 6.755331695465407e-06 -1.152605407369838e-06 1.990528762403523e-05 -4.4741530954457087e-07 7.193454416442258e-08)
(0.00011942754924570242 7.4881602146052495e-06 -1.1713583355622157e-06 2.10589805350037e-05 -4.3774702690750615e-07 7.256459264270273e-08)
(0.0001240184838375559 8.191075816935305e-06 -1.1848516490057943e-06 2.219243949362057e-05 -4.2604211199157515e-07 7.32321432409941e-08)
(0.00012835645178728303 8.855781876610823e-06 -1.1938404708909204e-06 2.330138934294043e-05 -4.1263022915441177e-07 7.396230163250705e-08)
(0.00013244699727678368 9.476141813858744e-06 -1.1988347410227233e-06 2.4383185666421053e-05 -3.977786145064636e-07 7.475981929449715e-08)
(0.00013629437541681978 1.004572216759434e-05 -1.2003495817309561e-06 2.543469313165698e-05 -3.8176292458135203e-07 7.56283629572406e-08)
(0.00013990779956308183 1.055992235688275e-05 -1.1989692469120202e-06 2.6453666798447165e-05 -3.6478480293895346e-07 7.657346490630505e-08)
(0.00014329883210154707 1.1015469059107463e-05 -1.1953419623343461e-06 2.7438064437924056e-05 -3.469885560602368e-07 7.760186855074747e-08)
(0.00014648080760214658 1.1409277477343864e-05 -1.1901357875252449e-06 2.8386134094665455e-05 -3.285163460865213e-07 7.872159767518177e-08)
(0.00014946911462090267 1.1739488099513416e-05 -1.1839635843733391e-06 2.92963026861044e-05 -3.0952177236297056e-07 7.995552700423699e-08)
(0.00015228206162504098 1.2005517235246676e-05 -1.1773859925472167e-06 3.0167436041492146e-05 -2.901644838751108e-07 8.134105944757818e-08)
(0.00015493788666633916 1.2206808608087148e-05 -1.1709806033253641e-06 3.099815926676286e-05 -2.7061747465846173e-07 8.291572622611129e-08)
(0.00015745642545471117 1.2344616139309985e-05 -1.1652947965172348e-06 3.1788179996759605e-05 -2.5111288018159274e-07 8.468259094334257e-08)
(0.0001598575939801385 1.2422218600391382e-05 -1.1608403435716974e-06 3.2537971766251964e-05 -2.3196459224551372e-07 8.660243121737136e-08)
(0.00016216305946159233 1.2443186320094425e-05 -1.1581396141451915e-06 3.324842876760837e-05 -2.1349113700699552e-07 8.863339410098321e-08)
(0.00016439232083712048 1.2412023387569883e-05 -1.157629468904766e-06 3.3920736991847704e-05 -1.9591893610725833e-07 9.075204520074866e-08)
(0.0001665614909218182 1.2334863429159077e-05 -1.1595798677209267e-06 3.4556886833340236e-05 -1.7929662973876948e-07 9.296901157030652e-08)
(0.00016868752028280362 1.2218196945352873e-05 -1.1642511348200098e-06 3.515922530294787e-05 -1.6365063029548442e-07 9.529934165472807e-08)
(0.00017078521359878754 1.2068469100845403e-05 -1.1718351582117593e-06 3.57302411531937e-05 -1.4905862061446238e-07 9.775562114100121e-08)
(0.00017286453379437142 1.1891317663214054e-05 -1.182304013415663e-06 3.6273516414335424e-05 -1.3573445732717548e-07 1.0034524621883394e-07)
(0.0001749327817738097 1.1692541414289783e-05 -1.195575936077316e-06 3.679242781883086e-05 -1.2393754177166788e-07 1.030723414286881e-07)
(0.00017699863307746365 1.1477821342485204e-05 -1.2115497480486438e-06 3.729106647608049e-05 -1.1388560072074933e-07 1.0593671150478788e-07)
(0.0001790654591194272 1.1252069690931259e-05 -1.2299443534114286e-06 3.7774215422964434e-05 -1.0555354198086948e-07 1.0889260459468717e-07)
(0.0001811362221735629 1.1019802357810889e-05 -1.2504105154406213e-06 3.824746835450355e-05 -9.880552489027415e-08 1.1187669198906654e-07)
(0.00018321305697301815 1.078564296925396e-05 -1.2725794263224324e-06 3.8716266644038765e-05 -9.34946602197487e-08 1.1482575225987122e-07)
(0.0001852975375529907 1.05516693567406e-05 -1.2960925793252935e-06 3.918361782744099e-05 -8.92986045242328e-08 1.1774166108306763e-07)
(0.0001873899301700003 1.0317710571485254e-05 -1.3205917143800801e-06 3.96501160074775e-05 -8.573475061627599e-08 1.2068512492425326e-07)
(0.00018949045369829644 1.0083503261251365e-05 -1.3457059776035813e-06 4.011629079582511e-05 -8.2299801099472e-08 1.2372078500225537e-07)
(0.00019159585261144423 9.848048780366097e-06 -1.37097068856124e-06 4.0582450364168e-05 -7.868988204098337e-08 1.268846579732178e-07)
(0.00019369565493039623 9.60874484448702e-06 -1.3957369717162659e-06 4.1048464902465656e-05 -7.504949545939542e-08 1.3014911199471474e-07)
(0.00019577754056994637 9.362769518702136e-06 -1.4193057073176903e-06 4.1514012160232446e-05 -7.158747113381088e-08 1.3347637336226808e-07)
(0.00019783360670263463 9.10733545778893e-06 -1.4411101026754519e-06 4.1979070114760425e-05 -6.849963145281507e-08 1.3683469445283022e-07)
(0.00019987898295629973 8.841022171544998e-06 -1.461436913975605e-06 4.244419176761646e-05 -6.58771105437264e-08 1.402261794928437e-07)
(0.0002019388587889952 8.562803719648344e-06 -1.4809176901801987e-06 4.2910355827760974e-05 -6.377121377818622e-08 1.4366740501193824e-07)
(0.00020403859384422618 8.271682435823242e-06 -1.5001950121845195e-06 4.337848950575997e-05 -6.222955075338083e-08 1.4717431644227685e-07)
(0.00020619374381945532 7.967250720818313e-06 -1.5197232462776649e-06 4.384891689303422e-05 -6.116734748200292e-08 1.5074469927079512e-07)
(0.00020841053759932158 7.649570332145312e-06 -1.5397661209629725e-06 4.4321562449442474e-05 -6.035886217111649e-08 1.5435889152139287e-07)
(0.00021069436320906426 7.31881374669099e-06 -1.5605815648686507e-06 4.47961982180906e-05 -5.956474371190634e-08 1.579947809860509e-07)
(0.00021304837792980908 6.976308578503802e-06 -1.5824535192076653e-06 4.5272542983862947e-05 -5.863886186782662e-08 1.616373469241268e-07)
(0.0002154701856606667 6.6266177176109505e-06 -1.6057406841828271e-06 4.575046702208761e-05 -5.7731169870204864e-08 1.6529667223696403e-07)
(0.00021795614952445664 6.275065707346882e-06 -1.6308250430442854e-06 4.622984153619842e-05 -5.705243903324637e-08 1.6898773292706008e-07)
(0.00022050159210416185 5.927082926636843e-06 -1.658024610832068e-06 4.671046827452737e-05 -5.68039628473128e-08 1.7272208267816995e-07)
(0.00022309942873563953 5.586503647394683e-06 -1.6869501219979635e-06 4.719282424582576e-05 -5.7020631306630066e-08 1.764815702617337e-07)
(0.00022574031538352462 5.256334633234534e-06 -1.7167676799592008e-06 4.7677673904072985e-05 -5.763625486382607e-08 1.802286331697442e-07)
(0.00022841488859300297 4.939608397255973e-06 -1.746618059844386e-06 4.816586532245272e-05 -5.858113060918899e-08 1.8392496812279332e-07)
(0.0002311136999806697 4.63786982234194e-06 -1.7760266724332127e-06 4.865771816436286e-05 -5.979086784513853e-08 1.8755522742076932e-07)
(0.00023382916899160246 4.349775105308499e-06 -1.8052340505526873e-06 4.9152929973398345e-05 -6.121283047538546e-08 1.9114767678195596e-07)
(0.00023655327460604854 4.07368656264178e-06 -1.8345565526827085e-06 4.9651053039993e-05 -6.279374266110048e-08 1.947353591589235e-07)
(0.00023927841764888566 3.807074051012714e-06 -1.8641462355163985e-06 5.015170178209262e-05 -6.448494207162847e-08 1.983423570868387e-07)
(0.00024200122512871725 3.542641928238552e-06 -1.8931942167117706e-06 5.065502553138537e-05 -6.627259456968929e-08 2.0193831422849486e-07)
(0.00024471824501541486 3.271376097769409e-06 -1.9205141979500747e-06 5.116108790431771e-05 -6.815399383944458e-08 2.0547075162625465e-07)
(0.00024742770718392523 2.984141265768922e-06 -1.944968153665623e-06 5.1670082676408774e-05 -7.011954570790295e-08 2.0888812437973955e-07)
(0.00025014701117586843 2.678133710475755e-06 -1.9672219201399047e-06 5.218095493676898e-05 -7.198352334582825e-08 2.121705134125278e-07)
(0.0002529131671422584 2.3573148348640893e-06 -1.9898416936794038e-06 5.269121458869411e-05 -7.337391683594272e-08 2.1533071327318933e-07)
(0.0002557659353517032 2.0260201446001165e-06 -2.015569726996136e-06 5.319835014853681e-05 -7.389878669736067e-08 2.1838431590406588e-07)
(0.00025872841899960493 1.6909198317713518e-06 -2.0463034053193536e-06 5.369978255114331e-05 -7.335393951264556e-08 2.213633367504206e-07)
(0.00026177074635913946 1.3654304078260136e-06 -2.0812311227391338e-06 5.4192791157524414e-05 -7.212136882320181e-08 2.2434709737017799e-07)