/*--------------------------------*- C++ -*----------------------------------*\
  =========                 |
  \\      /  F ield         | OpenFOAM: The Open Source CFD Toolbox
   \\    /   O peration     | Website:  https://openfoam.org
    \\  /    A nd           | Version:  6
     \\/     M anipulation  |
\*---------------------------------------------------------------------------*/
FoamFile
{
    version     2.0;
    format      ascii;
    class       volSymmTensorField;
    location    "98.07";
    object      turbulenceProperties:R;
}
// * * * * * * * * * * * * * * * * * * * * * * * * * * * * * * * * * * * * * //

dimensions      [0 2 -2 0 0 0 0];

internalField   nonuniform List<symmTensor> 
15625
(
(0.000310129 -3.99351e-06 -3.99351e-06 0.000310129 4.92478e-18 0.000310129)
(0.000346118 -3.5184e-06 -1.11589e-05 0.000346118 3.22586e-18 0.000346118)
(0.000417294 -3.5612e-06 -1.93012e-05 0.000417294 2.25128e-18 0.000417294)
(0.000513583 -3.7271e-06 -2.8788e-05 0.000513583 1.89446e-18 0.000513583)
(0.000624989 -3.90384e-06 -3.94812e-05 0.000624989 1.54264e-18 0.000624989)
(0.00074376 -4.03997e-06 -5.10662e-05 0.00074376 1.2662e-18 0.00074376)
(0.000864513 -4.11693e-06 -6.32121e-05 0.000864513 1.06766e-18 0.000864513)
(0.00098378 -4.13499e-06 -7.56333e-05 0.00098378 9.24852e-19 0.00098378)
(0.0010995 -4.10331e-06 -8.81062e-05 0.0010995 8.19463e-19 0.0010995)
(0.00121054 -4.03427e-06 -0.000100471 0.00121054 7.39529e-19 0.00121054)
(0.00131641 -3.93958e-06 -0.000112618 0.00131641 6.76465e-19 0.00131641)
(0.001417 -3.82891e-06 -0.00012448 0.001417 6.24976e-19 0.001417)
(0.00151245 -3.71015e-06 -0.000136019 0.00151245 5.82065e-19 0.00151245)
(0.00160303 -3.58813e-06 -0.000147218 0.00160303 5.44953e-19 0.00160303)
(0.00168902 -3.46579e-06 -0.000158071 0.00168902 5.1259e-19 0.00168902)
(0.00177078 -3.34609e-06 -0.000168584 0.00177078 4.84353e-19 0.00177078)
(0.00184863 -3.23026e-06 -0.000178766 0.00184863 4.60316e-19 0.00184863)
(0.00192287 -3.11846e-06 -0.000188629 0.00192287 4.39542e-19 0.00192287)
(0.00199381 -3.0117e-06 -0.000198188 0.00199381 4.19592e-19 0.00199381)
(0.00206167 -2.90984e-06 -0.000207456 0.00206167 4.02044e-19 0.00206167)
(0.00212672 -2.81272e-06 -0.000216447 0.00212672 3.87172e-19 0.00212672)
(0.00218915 -2.72021e-06 -0.000225175 0.00218915 3.73881e-19 0.00218915)
(0.00224917 -2.63171e-06 -0.000233653 0.00224917 3.60776e-19 0.00224917)
(0.00230692 -2.54761e-06 -0.000241892 0.00230692 3.48778e-19 0.00230692)
(0.00236257 -2.46791e-06 -0.000249905 0.00236257 3.37048e-19 0.00236257)
(0.00241627 -2.39165e-06 -0.000257703 0.00241627 3.25709e-19 0.00241627)
(0.00246811 -2.31833e-06 -0.000265294 0.00246811 3.16169e-19 0.00246811)
(0.00251824 -2.24857e-06 -0.000272687 0.00251824 3.06935e-19 0.00251824)
(0.00256674 -2.1821e-06 -0.000279894 0.00256674 2.97022e-19 0.00256674)
(0.00261371 -2.11855e-06 -0.000286921 0.00261371 2.88687e-19 0.00261371)
(0.00265923 -2.05754e-06 -0.000293776 0.00265923 2.82606e-19 0.00265923)
(0.00270339 -1.99865e-06 -0.000300466 0.00270339 2.76694e-19 0.00270339)
(0.00274625 -1.94233e-06 -0.000306996 0.00274625 2.71777e-19 0.00274625)
(0.00278788 -1.88842e-06 -0.000313375 0.00278788 2.68187e-19 0.00278788)
(0.00282834 -1.83674e-06 -0.000319607 0.00282834 2.63602e-19 0.00282834)
(0.00286769 -1.78678e-06 -0.000325699 0.00286769 2.56672e-19 0.00286769)
(0.00290597 -1.73862e-06 -0.000331655 0.00290597 2.51397e-19 0.00290597)
(0.00294324 -1.69266e-06 -0.00033748 0.00294324 2.46329e-19 0.00294324)
(0.00297955 -1.64805e-06 -0.000343179 0.00297955 2.39634e-19 0.00297955)
(0.00301492 -1.60454e-06 -0.000348755 0.00301492 2.34418e-19 0.00301492)
(0.00304941 -1.56309e-06 -0.000354213 0.00304941 2.28069e-19 0.00304941)
(0.00308304 -1.52316e-06 -0.000359557 0.00308304 2.20026e-19 0.00308304)
(0.00311585 -1.48416e-06 -0.000364791 0.00311585 2.13252e-19 0.00311585)
(0.00314789 -1.44675e-06 -0.000369918 0.00314789 2.09838e-19 0.00314789)
(0.00317915 -1.41064e-06 -0.000374941 0.00317915 2.06331e-19 0.00317915)
(0.00320969 -1.37527e-06 -0.000379862 0.00320969 2.01249e-19 0.00320969)
(0.00323953 -1.34096e-06 -0.000384685 0.00323953 1.98634e-19 0.00323953)
(0.00326869 -1.30803e-06 -0.000389413 0.00326869 1.98852e-19 0.00326869)
(0.00329719 -1.27621e-06 -0.000394049 0.00329719 2.00714e-19 0.00329719)
(0.00332506 -1.2449e-06 -0.000398595 0.00332506 2.00709e-19 0.00332506)
(0.00335231 -1.21472e-06 -0.000403053 0.00335231 1.98841e-19 0.00335231)
(0.00337897 -1.1854e-06 -0.000407426 0.00337897 1.9879e-19 0.00337897)
(0.00340505 -1.15662e-06 -0.000411715 0.00340505 1.98721e-19 0.00340505)
(0.00343058 -1.12902e-06 -0.000415922 0.00343058 1.99138e-19 0.00343058)
(0.00345556 -1.102e-06 -0.000420049 0.00345556 2.00652e-19 0.00345556)
(0.00348001 -1.07587e-06 -0.0004241 0.00348001 1.99435e-19 0.00348001)
(0.00350395 -1.05033e-06 -0.000428074 0.00350395 1.97671e-19 0.00350395)
(0.00352739 -1.0251e-06 -0.000431974 0.00352739 1.97341e-19 0.00352739)
(0.00355034 -1.00047e-06 -0.000435801 0.00355034 1.96277e-19 0.00355034)
(0.00357282 -9.77055e-07 -0.000439556 0.00357282 1.98242e-19 0.00357282)
(0.00359483 -9.53964e-07 -0.000443243 0.00359483 2.02387e-19 0.00359483)
(0.0036164 -9.30905e-07 -0.00044686 0.0036164 2.01703e-19 0.0036164)
(0.00363752 -9.0906e-07 -0.00045041 0.00363752 1.99625e-19 0.00363752)
(0.00365821 -8.87551e-07 -0.000453892 0.00365821 1.99184e-19 0.00365821)
(0.00367848 -8.66091e-07 -0.000457312 0.00367848 1.99287e-19 0.00367848)
(0.00369834 -8.45556e-07 -0.000460666 0.00369834 2.00671e-19 0.00369834)
(0.00371779 -8.25369e-07 -0.000463959 0.00371779 2.02511e-19 0.00371779)
(0.00373685 -8.05526e-07 -0.000467189 0.00373685 2.02731e-19 0.00373685)
(0.00375551 -7.86035e-07 -0.000470358 0.00375551 2.00789e-19 0.00375551)
(0.0037738 -7.66893e-07 -0.000473466 0.0037738 2.00245e-19 0.0037738)
(0.00379171 -7.48394e-07 -0.000476516 0.00379171 2.02592e-19 0.00379171)
(0.00380925 -7.30245e-07 -0.000479507 0.00380925 2.02832e-19 0.00380925)
(0.00382643 -7.12169e-07 -0.000482441 0.00382643 2.02022e-19 0.00382643)
(0.00384325 -6.94447e-07 -0.000485316 0.00384325 2.04715e-19 0.00384325)
(0.00385971 -6.77365e-07 -0.000488135 0.00385971 2.07021e-19 0.00385971)
(0.00387583 -6.60077e-07 -0.0004909 0.00387583 2.03938e-19 0.00387583)
(0.00389161 -6.43426e-07 -0.000493608 0.00389161 1.98523e-19 0.00389161)
(0.00390705 -6.27136e-07 -0.000496262 0.00390705 1.90263e-19 0.00390705)
(0.00392215 -6.10643e-07 -0.000498861 0.00392215 1.88463e-19 0.00392215)
(0.00393693 -5.94787e-07 -0.000501406 0.00393693 1.95219e-19 0.00393693)
(0.00395138 -5.79015e-07 -0.000503898 0.00395138 1.97705e-19 0.00395138)
(0.0039655 -5.63599e-07 -0.000506337 0.0039655 1.97873e-19 0.0039655)
(0.00397931 -5.48543e-07 -0.000508723 0.00397931 1.94782e-19 0.00397931)
(0.00399279 -5.33295e-07 -0.000511057 0.00399279 1.91121e-19 0.00399279)
(0.00400597 -5.18406e-07 -0.000513338 0.00400597 1.88727e-19 0.00400597)
(0.00401883 -5.03875e-07 -0.000515567 0.00401883 1.85222e-19 0.00401883)
(0.00403138 -4.89431e-07 -0.000517745 0.00403138 1.77872e-19 0.00403138)
(0.00404362 -4.75074e-07 -0.000519871 0.00404362 1.71123e-19 0.00404362)
(0.00405555 -4.61073e-07 -0.000521945 0.00405555 1.66938e-19 0.00405555)
(0.00406719 -4.47162e-07 -0.000523969 0.00406719 1.63906e-19 0.00406719)
(0.00407851 -4.33074e-07 -0.000525941 0.00407851 1.69722e-19 0.00407851)
(0.00408953 -4.19344e-07 -0.000527862 0.00408953 1.72913e-19 0.00408953)
(0.00410025 -4.05968e-07 -0.000529731 0.00410025 1.70986e-19 0.00410025)
(0.00411067 -3.92685e-07 -0.000531549 0.00411067 1.68277e-19 0.00411067)
(0.00412079 -3.79492e-07 -0.000533316 0.00412079 1.64596e-19 0.00412079)
(0.00413061 -3.66134e-07 -0.000535033 0.00413061 1.53954e-19 0.00413061)
(0.00414013 -3.52871e-07 -0.000536697 0.00414013 1.39809e-19 0.00414013)
(0.00414935 -3.4022e-07 -0.000538311 0.00414935 1.34526e-19 0.00414935)
(0.00415827 -3.27407e-07 -0.000539872 0.00415827 1.33382e-19 0.00415827)
(0.00416688 -3.14434e-07 -0.000541382 0.00416688 1.29527e-19 0.00416688)
(0.00417519 -3.01815e-07 -0.00054284 0.00417519 1.26593e-19 0.00417519)
(0.00418321 -2.89042e-07 -0.000544245 0.00418321 1.231e-19 0.00418321)
(0.00419091 -2.76369e-07 -0.000545597 0.00419091 1.16753e-19 0.00419091)
(0.00419831 -2.64049e-07 -0.000546898 0.00419831 1.1119e-19 0.00419831)
(0.00420541 -2.51829e-07 -0.000548145 0.00420541 1.07343e-19 0.00420541)
(0.00421221 -2.39215e-07 -0.000549338 0.00421221 1.00144e-19 0.00421221)
(0.00421869 -2.2695e-07 -0.000550478 0.00421869 9.05925e-20 0.00421869)
(0.00422485 -2.14793e-07 -0.000551563 0.00422485 8.76927e-20 0.00422485)
(0.00423071 -2.0225e-07 -0.000552594 0.00423071 8.07487e-20 0.00423071)
(0.00423625 -1.90061e-07 -0.000553569 0.00423625 7.19951e-20 0.00423625)
(0.00424147 -1.7798e-07 -0.000554489 0.00424147 7.11553e-20 0.00424147)
(0.00424637 -1.65768e-07 -0.000555353 0.00424637 6.30724e-20 0.00424637)
(0.00425095 -1.53426e-07 -0.000556159 0.00425095 4.80551e-20 0.00425095)
(0.0042552 -1.41438e-07 -0.000556909 0.0042552 4.66724e-20 0.0042552)
(0.00425912 -1.29327e-07 -0.000557601 0.00425912 4.82564e-20 0.00425912)
(0.00426271 -1.17093e-07 -0.000558233 0.00426271 4.83584e-20 0.00426271)
(0.00426595 -1.04745e-07 -0.000558806 0.00426595 4.52383e-20 0.00426595)
(0.00426886 -9.25165e-08 -0.000559319 0.00426886 2.85361e-20 0.00426886)
(0.00427143 -8.04118e-08 -0.000559771 0.00427143 1.77866e-20 0.00427143)
(0.00427363 -6.81965e-08 -0.000560161 0.00427363 1.67135e-20 0.00427363)
(0.00427549 -5.58785e-08 -0.000560489 0.00427549 1.48407e-20 0.00427549)
(0.00427699 -4.34582e-08 -0.000560753 0.00427699 1.54128e-20 0.00427699)
(0.00427811 -3.11703e-08 -0.000560953 0.00427811 1.69411e-20 0.00427811)
(0.00427887 -1.87873e-08 -0.000561086 0.00427887 7.2865e-21 0.00427887)
(0.00427926 -6.31473e-09 -0.000561155 0.00427926 -2.48528e-21 0.00427926)
(0.000346118 -1.11589e-05 -3.5184e-06 0.000346118 3.22567e-18 0.000346118)
(0.000294166 -9.78657e-06 -9.78657e-06 0.000294166 -3.26428e-18 0.000294166)
(0.000300948 -9.482e-06 -1.64204e-05 0.000300948 -1.65629e-18 0.000300948)
(0.000338439 -9.45365e-06 -2.37051e-05 0.000338439 -3.87421e-19 0.000338439)
(0.000392349 -9.57501e-06 -3.18958e-05 0.000392349 8.14618e-20 0.000392349)
(0.000454423 -9.71592e-06 -4.09413e-05 0.000454423 2.93505e-19 0.000454423)
(0.000519669 -9.79117e-06 -5.05939e-05 0.000519669 3.90032e-19 0.000519669)
(0.000585085 -9.76902e-06 -6.05769e-05 0.000585085 4.22848e-19 0.000585085)
(0.000648936 -9.65315e-06 -7.06597e-05 0.000648936 4.24346e-19 0.000648936)
(0.000710293 -9.46272e-06 -8.06777e-05 0.000710293 4.12153e-19 0.000710293)
(0.00076874 -9.21977e-06 -9.05207e-05 0.00076874 3.94034e-19 0.00076874)
(0.000824167 -8.94483e-06 -0.000100124 0.000824167 3.73544e-19 0.000824167)
(0.00087662 -8.65357e-06 -0.000109453 0.00087662 3.5451e-19 0.00087662)
(0.00092626 -8.35688e-06 -0.000118492 0.00092626 3.3654e-19 0.00092626)
(0.000973273 -8.06212e-06 -0.000127239 0.000973273 3.17846e-19 0.000973273)
(0.00101788 -7.77438e-06 -0.000135701 0.00101788 3.01471e-19 0.00101788)
(0.00106026 -7.49662e-06 -0.000143886 0.00106026 2.8904e-19 0.00106026)
(0.00110062 -7.23033e-06 -0.000151808 0.00110062 2.78277e-19 0.00110062)
(0.00113912 -6.9757e-06 -0.000159478 0.00113912 2.66104e-19 0.00113912)
(0.00117592 -6.73322e-06 -0.000166911 0.00117592 2.55734e-19 0.00117592)
(0.00121116 -6.50258e-06 -0.000174118 0.00121116 2.46459e-19 0.00121116)
(0.00124497 -6.28307e-06 -0.000181111 0.00124497 2.36942e-19 0.00124497)
(0.00127745 -6.07452e-06 -0.000187903 0.00127745 2.29443e-19 0.00127745)
(0.00130869 -5.87613e-06 -0.000194504 0.00130869 2.2223e-19 0.00130869)
(0.00133881 -5.68752e-06 -0.000200923 0.00133881 2.15169e-19 0.00133881)
(0.00136785 -5.50756e-06 -0.00020717 0.00136785 2.08356e-19 0.00136785)
(0.00139591 -5.33592e-06 -0.000213254 0.00139591 2.00981e-19 0.00139591)
(0.00142305 -5.1727e-06 -0.000219181 0.00142305 1.93265e-19 0.00142305)
(0.00144932 -5.01676e-06 -0.00022496 0.00144932 1.87682e-19 0.00144932)
(0.00147477 -4.86737e-06 -0.000230598 0.00147477 1.83981e-19 0.00147477)
(0.00149945 -4.72453e-06 -0.0002361 0.00149945 1.79919e-19 0.00149945)
(0.00152341 -4.5876e-06 -0.000241473 0.00152341 1.75163e-19 0.00152341)
(0.00154668 -4.4567e-06 -0.000246722 0.00154668 1.69982e-19 0.00154668)
(0.0015693 -4.3311e-06 -0.000251852 0.0015693 1.68001e-19 0.0015693)
(0.00159131 -4.21027e-06 -0.000256867 0.00159131 1.66713e-19 0.00159131)
(0.00161273 -4.09448e-06 -0.000261776 0.00161273 1.60535e-19 0.00161273)
(0.00163359 -3.9831e-06 -0.000266577 0.00163359 1.55619e-19 0.00163359)
(0.00165393 -3.8758e-06 -0.000271275 0.00165393 1.53508e-19 0.00165393)
(0.00167375 -3.7722e-06 -0.000275876 0.00167375 1.51485e-19 0.00167375)
(0.00169309 -3.67271e-06 -0.000280383 0.00169309 1.47171e-19 0.00169309)
(0.00171197 -3.57665e-06 -0.0002848 0.00171197 1.42509e-19 0.00171197)
(0.00173039 -3.48386e-06 -0.000289126 0.00173039 1.37238e-19 0.00173039)
(0.0017484 -3.39445e-06 -0.000293368 0.0017484 1.2963e-19 0.0017484)
(0.00176599 -3.30794e-06 -0.000297529 0.00176599 1.2784e-19 0.00176599)
(0.00178319 -3.22415e-06 -0.000301609 0.00178319 1.26959e-19 0.00178319)
(0.00180001 -3.14287e-06 -0.00030561 0.00180001 1.2298e-19 0.00180001)
(0.00181646 -3.06445e-06 -0.000309538 0.00181646 1.2276e-19 0.00181646)
(0.00183256 -2.98867e-06 -0.000313388 0.00183256 1.23402e-19 0.00183256)
(0.00184832 -2.91501e-06 -0.000317171 0.00184832 1.234e-19 0.00184832)
(0.00186375 -2.84354e-06 -0.000320886 0.00186375 1.23891e-19 0.00186375)
(0.00187885 -2.77401e-06 -0.00032453 0.00187885 1.24202e-19 0.00187885)
(0.00189365 -2.70673e-06 -0.000328109 0.00189365 1.25531e-19 0.00189365)
(0.00190815 -2.6412e-06 -0.000331621 0.00190815 1.2339e-19 0.00190815)
(0.00192235 -2.57743e-06 -0.000335076 0.00192235 1.20745e-19 0.00192235)
(0.00193627 -2.51572e-06 -0.000338466 0.00193627 1.23312e-19 0.00193627)
(0.00194992 -2.45529e-06 -0.000341795 0.00194992 1.2409e-19 0.00194992)
(0.00196329 -2.39669e-06 -0.000345065 0.00196329 1.22324e-19 0.00196329)
(0.00197641 -2.33968e-06 -0.00034828 0.00197641 1.2297e-19 0.00197641)
(0.00198927 -2.28399e-06 -0.000351439 0.00198927 1.23662e-19 0.00198927)
(0.00200189 -2.22964e-06 -0.000354542 0.00200189 1.22049e-19 0.00200189)
(0.00201426 -2.17637e-06 -0.000357591 0.00201426 1.24869e-19 0.00201426)
(0.00202639 -2.12474e-06 -0.000360587 0.00202639 1.26811e-19 0.00202639)
(0.00203829 -2.07422e-06 -0.000363529 0.00203829 1.24029e-19 0.00203829)
(0.00204997 -2.02481e-06 -0.00036642 0.00204997 1.23375e-19 0.00204997)
(0.00206142 -1.9768e-06 -0.00036926 0.00206142 1.24107e-19 0.00206142)
(0.00207265 -1.92938e-06 -0.000372053 0.00207265 1.24918e-19 0.00207265)
(0.00208367 -1.88311e-06 -0.000374793 0.00208367 1.27593e-19 0.00208367)
(0.00209448 -1.83798e-06 -0.000377484 0.00209448 1.28806e-19 0.00209448)
(0.00210508 -1.79346e-06 -0.00038013 0.00210508 1.28265e-19 0.00210508)
(0.00211547 -1.7501e-06 -0.000382727 0.00211547 1.26753e-19 0.00211547)
(0.00212567 -1.70791e-06 -0.000385279 0.00212567 1.26774e-19 0.00212567)
(0.00213567 -1.66608e-06 -0.000387784 0.00213567 1.28805e-19 0.00213567)
(0.00214547 -1.62488e-06 -0.000390242 0.00214547 1.27514e-19 0.00214547)
(0.00215509 -1.5846e-06 -0.000392658 0.00215509 1.26695e-19 0.00215509)
(0.00216451 -1.54522e-06 -0.000395026 0.00216451 1.26808e-19 0.00216451)
(0.00217374 -1.50649e-06 -0.00039735 0.00217374 1.25517e-19 0.00217374)
(0.00218279 -1.46841e-06 -0.000399631 0.00218279 1.22704e-19 0.00218279)
(0.00219166 -1.43099e-06 -0.000401867 0.00219166 1.18531e-19 0.00219166)
(0.00220034 -1.39396e-06 -0.000404058 0.00220034 1.17459e-19 0.00220034)
(0.00220885 -1.35759e-06 -0.000406209 0.00220885 1.20761e-19 0.00220885)
(0.00221717 -1.32188e-06 -0.000408313 0.00221717 1.22459e-19 0.00221717)
(0.00222532 -1.28657e-06 -0.000410377 0.00222532 1.23573e-19 0.00222532)
(0.00223329 -1.25167e-06 -0.000412398 0.00223329 1.20296e-19 0.00223329)
(0.00224109 -1.21743e-06 -0.000414374 0.00224109 1.18e-19 0.00224109)
(0.00224871 -1.18386e-06 -0.00041631 0.00224871 1.16245e-19 0.00224871)
(0.00225616 -1.15045e-06 -0.000418203 0.00225616 1.13513e-19 0.00225616)
(0.00226343 -1.1172e-06 -0.000420054 0.00226343 1.09088e-19 0.00226343)
(0.00227054 -1.08461e-06 -0.000421861 0.00227054 1.06222e-19 0.00227054)
(0.00227747 -1.0527e-06 -0.000423629 0.00227747 1.0419e-19 0.00227747)
(0.00228423 -1.02096e-06 -0.000425352 0.00228423 1.03056e-19 0.00228423)
(0.00229083 -9.89134e-07 -0.000427035 0.00229083 1.10499e-19 0.00229083)
(0.00229725 -9.57982e-07 -0.000428673 0.00229725 1.12092e-19 0.00229725)
(0.0023035 -9.27258e-07 -0.000430271 0.0023035 1.11381e-19 0.0023035)
(0.00230958 -8.9671e-07 -0.000431823 0.00230958 1.10241e-19 0.00230958)
(0.00231549 -8.66591e-07 -0.000433334 0.00231549 1.03929e-19 0.00231549)
(0.00232123 -8.3641e-07 -0.000434803 0.00232123 1.00448e-19 0.00232123)
(0.0023268 -8.06415e-07 -0.00043623 0.0023268 9.72419e-20 0.0023268)
(0.00233219 -7.76856e-07 -0.000437611 0.00233219 9.10375e-20 0.00233219)
(0.00233742 -7.47731e-07 -0.00043895 0.00233742 8.71057e-20 0.00233742)
(0.00234247 -7.18559e-07 -0.000440245 0.00234247 8.50996e-20 0.00234247)
(0.00234735 -6.89344e-07 -0.000441497 0.00234735 8.43165e-20 0.00234735)
(0.00235205 -6.60571e-07 -0.000442706 0.00235205 8.19133e-20 0.00235205)
(0.00235659 -6.32002e-07 -0.000443868 0.00235659 8.20472e-20 0.00235659)
(0.00236094 -6.03638e-07 -0.000444989 0.00236094 7.879e-20 0.00236094)
(0.00236511 -5.75014e-07 -0.000446062 0.00236511 7.0014e-20 0.00236511)
(0.00236911 -5.46601e-07 -0.00044709 0.00236911 6.36119e-20 0.00236911)
(0.00237293 -5.18643e-07 -0.00044807 0.00237293 6.24392e-20 0.00237293)
(0.00237656 -4.90669e-07 -0.000449004 0.00237656 6.45797e-20 0.00237656)
(0.00238001 -4.62689e-07 -0.000449893 0.00238001 5.73876e-20 0.00238001)
(0.00238328 -4.34704e-07 -0.000450737 0.00238328 5.04442e-20 0.00238328)
(0.00238636 -4.06721e-07 -0.00045153 0.00238636 4.91722e-20 0.00238636)
(0.00238925 -3.78746e-07 -0.000452273 0.00238925 4.51603e-20 0.00238925)
(0.00239196 -3.51013e-07 -0.00045297 0.00239196 3.49863e-20 0.00239196)
(0.00239447 -3.23296e-07 -0.000453619 0.00239447 3.34382e-20 0.00239447)
(0.00239679 -2.95378e-07 -0.000454218 0.00239679 3.61228e-20 0.00239679)
(0.00239891 -2.6749e-07 -0.000454765 0.00239891 3.41339e-20 0.00239891)
(0.00240083 -2.39638e-07 -0.000455261 0.00240083 2.93773e-20 0.00240083)
(0.00240255 -2.11828e-07 -0.000455704 0.00240255 1.87284e-20 0.00240255)
(0.00240406 -1.83846e-07 -0.000456095 0.00240406 1.16977e-20 0.00240406)
(0.00240537 -1.55918e-07 -0.000456429 0.00240537 1.04886e-20 0.00240537)
(0.00240647 -1.27836e-07 -0.000456715 0.00240647 1.18288e-20 0.00240647)
(0.00240735 -9.96045e-08 -0.000456943 0.00240735 1.11506e-20 0.00240735)
(0.00240803 -7.12372e-08 -0.000457118 0.00240803 1.47117e-20 0.00240803)
(0.00240847 -4.2739e-08 -0.000457234 0.00240847 7.5537e-21 0.00240847)
(0.0024087 -1.43371e-08 -0.000457293 0.0024087 -3.11365e-21 0.0024087)
(0.000417294 -1.93012e-05 -3.5612e-06 0.000417294 2.25189e-18 0.000417294)
(0.000300948 -1.64204e-05 -9.482e-06 0.000300948 -1.65641e-18 0.000300948)
(0.00027077 -1.66624e-05 -1.66624e-05 0.00027077 -1.65702e-18 0.00027077)
(0.000284021 -1.75492e-05 -2.54991e-05 0.000284021 -1.08762e-18 0.000284021)
(0.000320213 -1.85037e-05 -3.58589e-05 0.000320213 -6.47105e-19 0.000320213)
(0.000368457 -1.93633e-05 -4.76466e-05 0.000368457 -3.18986e-19 0.000368457)
(0.000422461 -2.00158e-05 -6.05845e-05 0.000422461 -8.67603e-20 0.000422461)
(0.000478473 -2.04052e-05 -7.42775e-05 0.000478473 6.36746e-20 0.000478473)
(0.000534278 -2.05362e-05 -8.83509e-05 0.000534278 1.55423e-19 0.000534278)
(0.000588632 -2.04491e-05 -0.000102513 0.000588632 2.0847e-19 0.000588632)
(0.000640899 -2.01948e-05 -0.000116564 0.000640899 2.37515e-19 0.000640899)
(0.000690813 -1.98226e-05 -0.000130376 0.000690813 2.50336e-19 0.000690813)
(0.00073832 -1.93728e-05 -0.000143875 0.00073832 2.53407e-19 0.00073832)
(0.000783487 -1.88761e-05 -0.00015702 0.000783487 2.50219e-19 0.000783487)
(0.00082644 -1.8354e-05 -0.000169797 0.00082644 2.42984e-19 0.00082644)
(0.000867333 -1.78225e-05 -0.000182203 0.000867333 2.36458e-19 0.000867333)
(0.000906333 -1.72922e-05 -0.000194246 0.000906333 2.31331e-19 0.000906333)
(0.00094358 -1.67699e-05 -0.000205935 0.00094358 2.23331e-19 0.00094358)
(0.000979227 -1.62603e-05 -0.000217287 0.000979227 2.12046e-19 0.000979227)
(0.00101339 -1.57654e-05 -0.000228312 0.00101339 2.0603e-19 0.00101339)
(0.00104621 -1.5287e-05 -0.00023903 0.00104621 2.01445e-19 0.00104621)
(0.00107777 -1.48263e-05 -0.000249459 0.00107777 1.92259e-19 0.00107777)
(0.00110817 -1.43827e-05 -0.000259601 0.00110817 1.85705e-19 0.00110817)
(0.00113749 -1.39564e-05 -0.000269481 0.00113749 1.80208e-19 0.00113749)
(0.00116583 -1.35464e-05 -0.000279107 0.00116583 1.7224e-19 0.00116583)
(0.00119323 -1.31529e-05 -0.000288495 0.00119323 1.66541e-19 0.00119323)
(0.00121977 -1.2775e-05 -0.00029765 0.00121977 1.59063e-19 0.00121977)
(0.00124549 -1.24114e-05 -0.00030659 0.00124549 1.49066e-19 0.00124549)
(0.00127046 -1.20622e-05 -0.000315316 0.00127046 1.41981e-19 0.00127046)
(0.0012947 -1.17269e-05 -0.000323848 0.0012947 1.41172e-19 0.0012947)
(0.00131827 -1.14043e-05 -0.000332181 0.00131827 1.41285e-19 0.00131827)
(0.00134121 -1.10934e-05 -0.000340337 0.00134121 1.36754e-19 0.00134121)
(0.00136353 -1.07943e-05 -0.000348316 0.00136353 1.26645e-19 0.00136353)
(0.00138529 -1.05047e-05 -0.000356125 0.00138529 1.2116e-19 0.00138529)
(0.0014065 -1.02303e-05 -0.000363774 0.0014065 1.23269e-19 0.0014065)
(0.00142719 -9.96429e-06 -0.000371264 0.00142719 1.15905e-19 0.00142719)
(0.00144739 -9.70099e-06 -0.000378606 0.00144739 1.09351e-19 0.00144739)
(0.00146713 -9.4496e-06 -0.000385802 0.00146713 1.12075e-19 0.00146713)
(0.00148641 -9.21079e-06 -0.000392858 0.00148641 1.16792e-19 0.00148641)
(0.00150525 -8.98078e-06 -0.000399784 0.00150525 1.0984e-19 0.00150525)
(0.00152369 -8.75127e-06 -0.000406575 0.00152369 1.01158e-19 0.00152369)
(0.00154174 -8.53137e-06 -0.000413243 0.00154174 1.00679e-19 0.00154174)
(0.0015594 -8.32588e-06 -0.000419787 0.0015594 8.88356e-20 0.0015594)
(0.0015767 -8.122e-06 -0.000426211 0.0015767 8.44812e-20 0.0015767)
(0.00159365 -7.91995e-06 -0.000432519 0.00159365 8.97608e-20 0.00159365)
(0.00161025 -7.7288e-06 -0.00043872 0.00161025 9.02773e-20 0.00161025)
(0.00162653 -7.54004e-06 -0.000444812 0.00162653 9.05802e-20 0.00162653)
(0.00164249 -7.35818e-06 -0.000450794 0.00164249 8.85864e-20 0.00164249)
(0.00165815 -7.18794e-06 -0.000456676 0.00165815 8.68538e-20 0.00165815)
(0.0016735 -7.01617e-06 -0.000462459 0.0016735 8.78119e-20 0.0016735)
(0.00168857 -6.84744e-06 -0.000468143 0.00168857 8.43708e-20 0.00168857)
(0.00170336 -6.68192e-06 -0.000473734 0.00170336 8.14731e-20 0.00170336)
(0.00171788 -6.52854e-06 -0.000479225 0.00171788 7.74304e-20 0.00171788)
(0.00173213 -6.37866e-06 -0.000484632 0.00173213 6.93969e-20 0.00173213)
(0.00174613 -6.22341e-06 -0.00048995 0.00174613 6.65277e-20 0.00174613)
(0.00175987 -6.07622e-06 -0.000495178 0.00175987 6.48412e-20 0.00175987)
(0.00177337 -5.93718e-06 -0.000500319 0.00177337 5.92036e-20 0.00177337)
(0.00178663 -5.80194e-06 -0.000505372 0.00178663 5.42275e-20 0.00178663)
(0.00179965 -5.66613e-06 -0.000510353 0.00179965 5.40515e-20 0.00179965)
(0.00181245 -5.53423e-06 -0.000515246 0.00181245 4.44642e-20 0.00181245)
(0.00182502 -5.40632e-06 -0.000520057 0.00182502 4.74106e-20 0.00182502)
(0.00183737 -5.27803e-06 -0.000524796 0.00183737 5.43412e-20 0.00183737)
(0.00184951 -5.15382e-06 -0.000529455 0.00184951 3.97306e-20 0.00184951)
(0.00186143 -5.03375e-06 -0.000534037 0.00186143 3.30646e-20 0.00186143)
(0.00187315 -4.91783e-06 -0.000538544 0.00187315 3.56037e-20 0.00187315)
(0.00188466 -4.80173e-06 -0.000542976 0.00188466 3.19996e-20 0.00188466)
(0.00189597 -4.68545e-06 -0.000547335 0.00189597 3.23646e-20 0.00189597)
(0.00190708 -4.57783e-06 -0.000551624 0.00190708 3.46304e-20 0.00190708)
(0.001918 -4.47013e-06 -0.000555843 0.001918 2.88692e-20 0.001918)
(0.00192872 -4.36234e-06 -0.000559982 0.00192872 2.35998e-20 0.00192872)
(0.00193925 -4.25891e-06 -0.000564061 0.00193925 2.5031e-20 0.00193925)
(0.00194959 -4.15546e-06 -0.000568064 0.00194959 3.05757e-20 0.00194959)
(0.00195975 -4.05637e-06 -0.000571997 0.00195975 3.12039e-20 0.00195975)
(0.00196972 -3.95734e-06 -0.000575866 0.00196972 2.12578e-20 0.00196972)
(0.00197951 -3.85835e-06 -0.000579662 0.00197951 1.38374e-20 0.00197951)
(0.00198911 -3.76379e-06 -0.000583397 0.00198911 1.47514e-20 0.00198911)
(0.00199854 -3.66932e-06 -0.000587058 0.00199854 2.00757e-20 0.00199854)
(0.00200779 -3.57498e-06 -0.000590655 0.00200779 1.68043e-20 0.00200779)
(0.00201686 -3.48507e-06 -0.000594181 0.00201686 6.10373e-21 0.00201686)
(0.00202575 -3.39533e-06 -0.000597649 0.00202575 6.90465e-21 0.00202575)
(0.00203447 -3.30573e-06 -0.000601045 0.00203447 1.46567e-20 0.00203447)
(0.00204301 -3.2206e-06 -0.000604372 0.00204301 1.46391e-20 0.00204301)
(0.00205137 -3.13143e-06 -0.000607632 0.00205137 6.71689e-21 0.00205137)
(0.00205957 -3.04668e-06 -0.00061083 0.00205957 6.40427e-21 0.00205957)
(0.00206759 -2.96643e-06 -0.000613963 0.00206759 2.82068e-21 0.00206759)
(0.00207543 -2.88216e-06 -0.000617025 0.00207543 -3.73016e-21 0.00207543)
(0.00208311 -2.79816e-06 -0.00062003 0.00208311 -7.52528e-21 0.00208311)
(0.0020906 -2.71861e-06 -0.000622961 0.0020906 -8.7799e-21 0.0020906)
(0.00209793 -2.63935e-06 -0.000625825 0.00209793 -1.27703e-20 0.00209793)
(0.00210508 -2.56036e-06 -0.000628621 0.00210508 -9.06599e-21 0.00210508)
(0.00211206 -2.48167e-06 -0.000631354 0.00211206 -5.0533e-21 0.00211206)
(0.00211886 -2.40328e-06 -0.00063402 0.00211886 -9.37995e-21 0.00211886)
(0.00212549 -2.32523e-06 -0.00063662 0.00212549 -7.23155e-21 0.00212549)
(0.00213195 -2.2475e-06 -0.000639151 0.00213195 -1.0585e-20 0.00213195)
(0.00213823 -2.17423e-06 -0.000641609 0.00213823 -1.89362e-20 0.00213823)
(0.00214433 -2.1013e-06 -0.000644008 0.00214433 -1.18547e-20 0.00214433)
(0.00215025 -2.02465e-06 -0.000646334 0.00215025 -1.1767e-20 0.00215025)
(0.002156 -1.94836e-06 -0.000648586 0.002156 -2.70146e-20 0.002156)
(0.00216157 -1.87654e-06 -0.000650778 0.00216157 -2.94167e-20 0.00216157)
(0.00216696 -1.80509e-06 -0.000652893 0.00216696 -2.22613e-20 0.00216696)
(0.00217217 -1.73403e-06 -0.000654939 0.00217217 -2.18174e-20 0.00217217)
(0.00217719 -1.65939e-06 -0.000656909 0.00217719 -2.29752e-20 0.00217719)
(0.00218203 -1.58915e-06 -0.000658815 0.00218203 -1.36252e-20 0.00218203)
(0.00218669 -1.51937e-06 -0.000660644 0.00218669 -1.36552e-20 0.00218669)
(0.00219115 -1.44605e-06 -0.000662401 0.00219115 -2.32841e-20 0.00219115)
(0.00219543 -1.37322e-06 -0.000664086 0.00219543 -2.37537e-20 0.00219543)
(0.00219952 -1.30086e-06 -0.000665698 0.00219952 -1.77703e-20 0.00219952)
(0.00220342 -1.23292e-06 -0.00066723 0.00220342 -1.19884e-20 0.00220342)
(0.00220712 -1.16544e-06 -0.000668688 0.00220712 -7.50678e-21 0.00220712)
(0.00221063 -1.0946e-06 -0.000670064 0.00221063 -3.51701e-21 0.00221063)
(0.00221393 -1.02042e-06 -0.000671367 0.00221393 -5.2516e-21 0.00221393)
(0.00221704 -9.50635e-07 -0.000672594 0.00221704 9.70975e-22 0.00221704)
(0.00221995 -8.85226e-07 -0.000673738 0.00221995 -4.63602e-21 0.00221995)
(0.00222265 -8.16553e-07 -0.000674798 0.00222265 -1.04168e-20 0.00222265)
(0.00222513 -7.44657e-07 -0.000675782 0.00222513 1.73388e-21 0.00222513)
(0.00222741 -6.73376e-07 -0.000676683 0.00222741 7.14103e-22 0.00222741)
(0.00222948 -6.02718e-07 -0.000677493 0.00222948 -6.8998e-21 0.00222948)
(0.00223133 -5.32694e-07 -0.000678224 0.00223133 -1.50115e-20 0.00223133)
(0.00223296 -4.59618e-07 -0.00067887 0.00223296 -2.28104e-20 0.00223296)
(0.00223437 -3.9089e-07 -0.000679423 0.00223437 -1.33994e-20 0.00223437)
(0.00223555 -3.22867e-07 -0.000679891 0.00223555 6.50718e-22 0.00223555)
(0.00223651 -2.51839e-07 -0.000680266 0.00223651 1.49375e-21 0.00223651)
(0.00223723 -1.81554e-07 -0.000680546 0.00223723 1.26789e-20 0.00223723)
(0.00223771 -1.08384e-07 -0.000680742 0.00223771 6.19563e-21 0.00223771)
(0.00223795 -3.59963e-08 -0.000680836 0.00223795 -5.84079e-21 0.00223795)
(0.000513583 -2.8788e-05 -3.7271e-06 0.000513583 1.89516e-18 0.000513583)
(0.000338439 -2.37051e-05 -9.45365e-06 0.000338439 -3.87629e-19 0.000338439)
(0.000284021 -2.54991e-05 -1.75492e-05 0.000284021 -1.08731e-18 0.000284021)
(0.000289974 -3.03478e-05 -3.03478e-05 0.000289974 -1.25949e-18 0.000289974)
(0.000327711 -3.5748e-05 -4.76524e-05 0.000327711 -1.18594e-18 0.000327711)
(0.000382075 -4.0353e-05 -6.81863e-05 0.000382075 -9.56624e-19 0.000382075)
(0.000444396 -4.37853e-05 -9.07877e-05 0.000444396 -6.80253e-19 0.000444396)
(0.000509601 -4.60653e-05 -0.000114526 0.000509601 -4.29033e-19 0.000509601)
(0.000574769 -4.73581e-05 -0.000138683 0.000574769 -2.31025e-19 0.000574769)
(0.000638303 -4.78713e-05 -0.000162753 0.000638303 -8.47633e-20 0.000638303)
(0.0006994 -4.78019e-05 -0.00018641 0.0006994 1.98695e-20 0.0006994)
(0.000757727 -4.7315e-05 -0.000209466 0.000757727 9.13918e-20 0.000757727)
(0.00081322 -4.65406e-05 -0.000231822 0.00081322 1.37671e-19 0.00081322)
(0.00086596 -4.5575e-05 -0.000253437 0.00086596 1.65155e-19 0.00086596)
(0.000916087 -4.44903e-05 -0.000274301 0.000916087 1.8346e-19 0.000916087)
(0.000963793 -4.33361e-05 -0.000294438 0.000963793 1.97063e-19 0.000963793)
(0.00100926 -4.2147e-05 -0.000313871 0.00100926 2.04815e-19 0.00100926)
(0.00105267 -4.09517e-05 -0.00033263 0.00105267 2.03749e-19 0.00105267)
(0.00109419 -3.9757e-05 -0.000350751 0.00109419 1.95181e-19 0.00109419)
(0.00113397 -3.8583e-05 -0.00036827 0.00113397 1.9752e-19 0.00113397)
(0.00117215 -3.74494e-05 -0.00038521 0.00117215 2.01664e-19 0.00117215)
(0.00120885 -3.63292e-05 -0.000401619 0.00120885 1.94776e-19 0.00120885)
(0.0012442 -3.52416e-05 -0.000417511 0.0012442 1.89218e-19 0.0012442)
(0.00127829 -3.42031e-05 -0.000432923 0.00127829 1.83481e-19 0.00127829)
(0.0013112 -3.31977e-05 -0.000447882 0.0013112 1.74128e-19 0.0013112)
(0.00134303 -3.22213e-05 -0.000462414 0.00134303 1.64583e-19 0.00134303)