/*--------------------------------*- C++ -*----------------------------------*\
| =========                 |                                                 |
| \\      /  F ield         | OpenFOAM: The Open Source CFD Toolbox           |
|  \\    /   O peration     | Version:  2306                                  |
|   \\  /    A nd           | Website:  www.openfoam.com                      |
|    \\/     M anipulation  |                                                 |
\*---------------------------------------------------------------------------*/
// * * * * * * * * * * * * * * * * * * * * * * * * * * * * * * * * * * * * * //
FoamFile
{
    version         2;
    format          ascii;
    arch            "LSB;label=32;scalar=64";
    class           volSymmTensorField;
    location        "0";
    object          S;
}

dimensions      [ 0 0 -1 0 0 0 0 ];

internalField   nonuniform List<symmTensor> 
15625
(
(0 0.148736 0.148736 -3.08458e-13 -1.83421e-13 -3.08482e-13)
(0 0.124041 0.393407 2.85614e-14 -1.13728e-13 -2.02765e-13)
(4.25905e-18 0.114342 0.619721 1.3885e-13 -7.22839e-14 -9.1174e-14)
(0 0.107869 0.833179 6.10337e-14 -5.48293e-14 -4.83326e-14)
(0 0.102421 1.03583 2.68219e-14 -4.04725e-14 -2.71369e-14)
(0 0.0971617 1.22815 1.45585e-14 -3.04522e-14 -1.53835e-14)
(0 0.0918379 1.4101 8.55027e-15 -2.38166e-14 -9.00854e-15)
(0 0.0864684 1.5816 5.20276e-15 -1.93399e-14 -5.5665e-15)
(0 0.0811652 1.74278 3.36126e-15 -1.62093e-14 -3.64451e-15)
(0 0.0760517 1.89401 2.33061e-15 -1.39412e-14 -2.5371e-15)
(1.62911e-17 0.0712177 2.03585 1.71763e-15 -1.22288e-14 -1.86606e-15)
(0 0.0667151 2.16894 1.32431e-15 -1.08896e-14 -1.44648e-15)
(0 0.0625725 2.29399 1.06027e-15 -9.81666e-15 -1.14797e-15)
(0 0.0587802 2.4117 8.71307e-16 -8.92733e-15 -9.55534e-16)
(3.18618e-17 0.0553119 2.52272 7.30113e-16 -8.18064e-15 -7.93101e-16)
(-3.16842e-17 0.0521541 2.62765 6.14334e-16 -7.54941e-15 -6.67486e-16)
(0 0.0492773 2.72705 5.13365e-16 -7.02207e-15 -5.50752e-16)
(-3.13319e-17 0.0466442 2.82142 4.48827e-16 -6.57444e-15 -4.93081e-16)
(6.23146e-17 0.0442388 2.91118 3.99635e-16 -6.16338e-15 -4.45599e-16)
(3.09836e-17 0.0420332 2.99674 3.33481e-16 -5.8076e-15 -3.85193e-16)
(0 0.0400041 3.07843 2.81429e-16 -5.50659e-15 -3.55801e-16)
(0 0.0381327 3.15657 2.60509e-16 -5.24117e-15 -3.00543e-16)
(0 0.0363965 3.23142 2.42289e-16 -4.98952e-15 -2.5788e-16)
(-3.02985e-17 0.0347896 3.30323 2.21904e-16 -4.76284e-15 -2.36109e-16)
(-6.02593e-17 0.033302 3.37222 2.06826e-16 -4.54813e-15 -2.26055e-16)
(2.99617e-17 0.0319123 3.43859 1.87229e-16 -4.34601e-15 -2.13566e-16)
(5.95893e-17 0.0306073 3.50249 1.687e-16 -4.17416e-15 -1.97397e-16)
(0 0.0293895 3.5641 1.60733e-16 -4.01173e-15 -1.68542e-16)
(0 0.0282499 3.62357 1.47034e-16 -3.84531e-15 -1.37589e-16)
(0 0.0271796 3.68102 1.14675e-16 -3.70367e-15 -1.18093e-16)
(0 0.02617 3.73656 9.0378e-17 -3.59448e-15 -1.15229e-16)
(0 0.0252125 3.79031 8.09043e-17 -3.49043e-15 -9.76696e-17)
(0 0.0243101 3.84235 6.91437e-17 -3.40154e-15 -7.77162e-17)
(0 0.0234583 3.89279 7.13033e-17 -3.33146e-15 -5.06667e-17)
(-5.69832e-17 0.0226525 3.94171 8.42763e-17 -3.25099e-15 -9.1102e-17)
(0 0.0218846 3.98919 7.52518e-17 -3.14374e-15 -9.47177e-17)
(2.81749e-17 0.0211541 4.03529 6.65736e-17 -3.05878e-15 -6.63179e-17)
(0 0.020464 4.08008 8.02208e-17 -2.97808e-15 -7.2419e-17)
(0 0.0198029 4.12362 7.22901e-17 -2.87943e-15 -7.42528e-17)
(0 0.0191666 4.16597 5.70103e-17 -2.80018e-15 -9.82514e-17)
(0 0.0185657 4.20718 7.52016e-17 -2.70889e-15 -8.65466e-17)
(0 0.0179924 4.24729 8.49671e-17 -2.59907e-15 -1.02143e-16)
(0 0.0174392 4.28636 5.86749e-17 -2.50576e-15 -7.10825e-17)
(0 0.0169128 4.32443 4.07844e-17 -2.45306e-15 -2.52058e-17)
(-5.38853e-17 0.0164095 4.36154 4.74456e-17 -2.40017e-15 -3.21569e-17)
(0 0.0159217 4.39772 3.96629e-17 -2.32989e-15 -3.47238e-17)
(0 0.0154528 4.433 1.76297e-17 -2.289e-15 6.4866e-18)
(0 0.015006 4.46743 4.93392e-18 -2.28127e-15 -7.97864e-18)
(5.26938e-17 0.0145775 4.50103 1.31683e-17 -2.29266e-15 4.23523e-18)
(0 0.0141601 4.53384 4.22072e-17 -2.28297e-15 -6.32378e-18)
(0 0.0137606 4.56587 4.86257e-17 -2.25251e-15 -2.00074e-18)
(0 0.0133753 4.59716 2.34456e-17 -2.24303e-15 -3.19282e-17)
(5.15287e-17 0.0130006 4.62773 7.98898e-18 -2.23365e-15 -6.39617e-17)
(0 0.0126431 4.65759 1.484e-17 -2.22999e-15 -2.84404e-17)
(0 0.0122958 4.68679 3.54869e-17 -2.23882e-15 -1.53143e-17)
(0 0.0119619 4.71532 4.8541e-17 -2.21741e-15 -3.13831e-17)
(0 0.011638 4.74322 4.50709e-17 -2.19027e-15 -2.83378e-17)
(0 0.0113206 4.77051 3.32349e-17 -2.17934e-15 -2.26658e-17)
(0 0.011013 4.79719 1.75727e-17 -2.16057e-15 -1.09244e-17)
(4.95514e-17 0.0107213 4.82328 3.1188e-18 -2.17532e-15 7.97075e-19)
(0 0.0104358 4.84881 2.36981e-18 -2.21399e-15 2.21503e-17)
(0 0.0101531 4.87378 2.13529e-17 -2.19992e-15 -1.16521e-17)
(-4.87273e-17 0.00988605 4.89822 3.45931e-17 -2.17093e-15 3.81187e-19)
(0 0.00962483 4.92212 2.81568e-17 -2.16e-15 -2.2392e-18)
(0 0.00936619 4.94551 1.99565e-17 -2.15515e-15 2.1493e-17)
(0 0.00911953 4.9684 1.65401e-17 -2.16428e-15 6.2454e-18)
(0 0.00887848 4.9908 1.74026e-17 -2.17841e-15 2.14104e-17)
(0 0.00864291 5.01271 2.37159e-17 -2.17521e-15 8.71813e-18)
(0 0.0084128 5.03416 1.90155e-17 -2.14901e-15 4.39006e-17)
(0 0.00818802 5.05514 -4.97863e-18 -2.13799e-15 2.47516e-17)
(0 0.00797161 5.07567 -1.9482e-17 -2.15793e-15 6.32804e-17)
(0 0.00776038 5.09576 -8.44149e-18 -2.15551e-15 2.34768e-17)
(0 0.00755127 5.11541 -9.02289e-18 -2.14208e-15 -6.45973e-18)
(4.58214e-17 0.00734723 5.13463 -1.95206e-17 -2.16588e-15 8.82674e-18)
(0 0.0071512 5.15344 7.73844e-18 -2.1856e-15 1.28855e-17)
(-9.0624e-17 0.00695418 5.17183 4.82667e-17 -2.14857e-15 -1.2364e-17)
(-9.01188e-17 0.006765 5.18981 6.81043e-17 -2.08727e-15 1.63368e-17)
(0 0.00658068 5.20739 5.02847e-17 -1.99647e-15 1.03563e-17)
(4.45584e-17 0.00639527 5.22458 -9.87088e-18 -1.97377e-15 6.64002e-17)
(4.43101e-17 0.00621751 5.24137 -3.53916e-17 -2.04069e-15 3.14388e-17)
(0 0.00604156 5.25778 -1.48803e-17 -2.0629e-15 1.41709e-17)
(0 0.00587022 5.27381 1.49213e-17 -2.06096e-15 9.94746e-18)
(0 0.00570348 5.28946 3.89001e-17 -2.02524e-15 -5.02331e-17)
(0 0.00553557 5.30474 2.43723e-17 -1.98382e-15 -3.96319e-17)
(4.30888e-17 0.00537217 5.31965 8.93818e-18 -1.95575e-15 -1.0943e-16)
(8.56972e-17 0.00521323 5.3342 3.77581e-17 -1.91636e-15 -1.1477e-16)
(0 0.00505589 5.34838 6.77935e-17 -1.83745e-15 -9.82216e-17)
(0 0.00490015 5.36221 5.98763e-17 -1.76505e-15 -4.00309e-17)
(0 0.00474874 5.37568 3.83119e-17 -1.71935e-15 -6.16329e-17)
(0 0.00459887 5.3888 9.79468e-18 -1.6857e-15 9.55465e-18)
(0 0.0044478 5.40157 -5.41771e-18 -1.7431e-15 2.55545e-17)
(0 0.00430097 5.41398 9.4721e-18 -1.77347e-15 -3.15865e-17)
(0 0.00415835 5.42604 1.5479e-17 -1.75141e-15 -2.8947e-17)
(0 0.00401718 5.43777 1.10946e-17 -1.72148e-15 -6.58002e-17)
(1.22239e-16 0.00387745 5.44914 4.91759e-17 -1.68176e-15 -5.75911e-17)
(-1.21557e-16 0.00373651 5.46018 9.72032e-17 -1.57115e-15 -2.45546e-17)
(-4.02932e-17 0.00359701 5.47087 6.3489e-17 -1.42516e-15 -5.10747e-17)
(4.00686e-17 0.0034642 5.48121 5.44351e-18 -1.36978e-15 -2.12717e-17)
(0 0.00333016 5.49121 2.44194e-18 -1.35667e-15 -2.04796e-17)
(0 0.0031949 5.50088 1.40156e-17 -1.3161e-15 2.05229e-18)
(0 0.00306363 5.51019 1.55488e-17 -1.285e-15 1.32371e-17)
(-3.91827e-17 0.00293117 5.51916 2.80727e-17 -1.24835e-15 -2.08361e-17)
(0 0.00280007 5.52779 3.03984e-17 -1.1829e-15 -8.46029e-18)
(0 0.00267289 5.53607 6.95974e-18 -1.12554e-15 -6.85449e-17)
(0 0.00254703 5.54402 7.37437e-18 -1.08568e-15 -5.63012e-17)
(0 0.0024175 5.55161 2.61464e-17 -1.01205e-15 -4.55982e-17)
(0 0.00229179 5.55885 1.84366e-17 -9.14822e-16 4.35711e-17)
(0 0.00216745 5.56574 2.08941e-17 -8.84894e-16 -1.11283e-17)
(7.53581e-17 0.00203946 5.57228 2.7798e-17 -8.14258e-16 -4.97805e-17)
(0 0.00191529 5.57847 1.29749e-18 -7.25514e-16 -3.75432e-17)
(0 0.00179245 5.5843 8.11783e-19 -7.1661e-16 -3.99816e-17)
(0 0.00166849 5.58977 3.99288e-17 -6.34839e-16 -6.375e-17)
(-7.36919e-17 0.00154344 5.59487 3.25542e-17 -4.83427e-16 -6.12886e-17)
(0 0.00142213 5.59961 -7.68348e-18 -4.69282e-16 6.51214e-17)
(0 0.00129976 5.60398 -1.9626e-17 -4.84985e-16 -3.67766e-17)
(1.44933e-16 0.00117631 5.60798 -5.88673e-18 -4.85806e-16 -5.22746e-17)
(0 0.00105187 5.6116 4.36527e-17 -4.54288e-16 -1.19413e-16)
(0 0.000928744 5.61483 6.27146e-17 -2.86465e-16 -1.18889e-16)
(7.12613e-17 0.000806988 5.61769 2.1844e-17 -1.78501e-16 -3.17899e-17)
(0 0.000684222 5.62015 -5.73649e-18 -1.67688e-16 2.26653e-18)
(0 0.000560513 5.62222 -1.45958e-17 -1.48866e-16 2.28589e-17)
(0 0.000435849 5.62388 -1.85883e-17 -1.54577e-16 -7.74935e-18)
(0 0.000312571 5.62515 9.42077e-18 -1.69883e-16 8.69694e-18)
(0 0.00018838 5.62599 3.41279e-17 -7.30614e-17 -1.47585e-16)
(0 6.33146e-05 5.62642 -3.87056e-18 2.49187e-17 -5.19001e-17)
(0 0.393407 0.124041 -2.02741e-13 -1.13721e-13 2.85372e-14)
(0 0.344986 0.344986 -4.43436e-14 1.15069e-13 -4.43248e-14)
(0 0.321154 0.556156 6.29681e-14 5.60983e-14 -5.91089e-14)
(0 0.301891 0.756992 4.86394e-14 1.23718e-14 -4.56011e-14)
(0 0.284353 0.947222 3.22617e-14 -2.4192e-15 -3.14761e-14)
(3.3319e-17 0.267295 1.12634 2.21208e-14 -8.07465e-15 -2.13164e-14)
(0 0.250424 1.29401 1.52459e-14 -9.97566e-15 -1.4507e-14)
(0 0.233888 1.45032 1.0563e-14 -1.01237e-14 -1.00561e-14)
(6.55298e-17 0.217998 1.59571 7.49005e-15 -9.58302e-15 -7.16762e-15)
(0 0.203019 1.73091 5.50276e-15 -8.8426e-15 -5.28996e-15)
(0 0.189113 1.85674 4.19849e-15 -8.08232e-15 -4.0384e-15)
(6.444e-17 0.176357 1.97405 3.28572e-15 -7.36483e-15 -3.19237e-15)
(0 0.164741 2.08369 2.64005e-15 -6.74893e-15 -2.57914e-15)
(0 0.154201 2.18641 2.19593e-15 -6.20983e-15 -2.14127e-15)
(0 0.144649 2.2829 1.84685e-15 -5.70272e-15 -1.78436e-15)
(-1.2603e-16 0.135995 2.37378 1.52764e-15 -5.27355e-15 -1.49026e-15)
(0 0.128147 2.45959 1.27254e-15 -4.94084e-15 -1.2636e-15)
(0 0.121014 2.5408 1.11555e-15 -4.65751e-15 -1.113e-15)
(-1.23934e-16 0.114507 2.61785 9.89026e-16 -4.36811e-15 -9.64402e-16)
(0 0.108559 2.69108 8.46919e-16 -4.12317e-15 -8.19955e-16)
(0 0.103106 2.76084 7.26044e-16 -3.90789e-15 -7.33446e-16)
(6.09367e-17 0.0980872 2.82739 6.60352e-16 -3.69899e-15 -6.693e-16)
(0 0.0934603 2.891 6.1661e-16 -3.53013e-15 -5.945e-16)
(6.02593e-17 0.0891793 2.9519 5.59813e-16 -3.37268e-15 -5.62493e-16)
(1.19847e-16 0.0852115 3.01027 5.1421e-16 -3.22371e-15 -5.12987e-16)
(0 0.0815165 3.06629 4.65276e-16 -3.08384e-15 -4.83703e-16)
(0 0.0780706 3.12014 4.2387e-16 -2.94058e-15 -4.59231e-16)
(0 0.0748585 3.17195 4.13713e-16 -2.7969e-15 -4.11109e-16)
(-1.17197e-16 0.0718494 3.22186 3.79181e-16 -2.68796e-15 -3.34638e-16)
(0 0.0690212 3.26997 3.05411e-16 -2.60892e-15 -2.73781e-16)
(0 0.0663633 3.3164 2.59597e-16 -2.52724e-15 -2.56302e-16)
(0 0.0638582 3.36125 2.43926e-16 -2.43822e-15 -2.66864e-16)
(0 0.0614995 3.4046 2.164e-16 -2.34564e-15 -2.59531e-16)
(0 0.0592702 3.44654 1.91353e-16 -2.29906e-15 -2.03855e-16)
(-2.26662e-16 0.0571571 3.48713 2.12293e-16 -2.26323e-15 -1.76093e-16)
(0 0.0551585 3.5265 2.35183e-16 -2.16264e-15 -2.00399e-16)
(0 0.0532614 3.56463 2.12809e-16 -2.08091e-15 -1.4569e-16)
(0 0.0514572 3.6016 2.04987e-16 -2.03806e-15 -1.24381e-16)
(0 0.0497371 3.63747 2.06123e-16 -1.99735e-15 -1.33983e-16)
(1.10208e-16 0.0481034 3.67233 2.15653e-16 -1.92758e-15 -2.22159e-16)
(0 0.0465442 3.70621 2.41155e-16 -1.85452e-15 -1.91805e-16)
(0 0.0450546 3.73908 2.36462e-16 -1.77482e-15 -2.05949e-16)
(0 0.0436337 3.77108 1.86961e-16 -1.66632e-15 -2.12607e-16)
(0 0.0422733 3.80223 1.43232e-16 -1.63371e-15 -1.17015e-16)
(0 0.0409691 3.83253 1.40702e-16 -1.61326e-15 -7.56705e-17)
(0 0.0397166 3.86201 1.16815e-16 -1.55411e-15 -5.42123e-17)
(0 0.0385187 3.89075 5.49277e-17 -1.54304e-15 -5.12304e-17)
(0 0.0373711 3.9187 -2.26412e-18 -1.54305e-15 -5.01336e-17)
(0 0.0362661 3.94598 -9.83202e-18 -1.53524e-15 -4.20775e-17)
(0 0.0352032 3.97258 2.26768e-17 -1.53377e-15 -4.61159e-17)
(0 0.0341782 3.9985 1.78467e-17 -1.53028e-15 -7.60166e-17)
(1.03057e-16 0.0331941 4.02378 -3.35723e-18 -1.53945e-15 -6.53711e-17)
(0 0.0322436 4.04841 -4.53286e-19 -1.50634e-15 -9.40692e-17)
(1.01912e-16 0.031326 4.07251 -1.95362e-17 -1.46753e-15 -8.67683e-17)
(0 0.0304444 4.096 -1.38367e-17 -1.49228e-15 -6.28964e-17)
(2.01557e-16 0.0295882 4.1189 2.39081e-17 -1.49539e-15 -7.50205e-17)
(0 0.0287637 4.14127 9.10516e-18 -1.46806e-15 -7.62778e-17)
(0 0.0279671 4.16313 -1.88173e-18 -1.46991e-15 -5.00527e-17)
(0 0.0271949 4.1845 -1.11338e-17 -1.47242e-15 -3.99452e-17)
(0 0.0264466 4.20536 -6.04839e-17 -1.44767e-15 -6.73846e-17)
(1.96002e-16 0.0257187 4.22574 -3.5564e-17 -1.4756e-15 2.91925e-17)
(0 0.0250173 4.24565 2.74748e-17 -1.49311e-15 -4.64994e-17)
(0 0.0243357 4.26509 1.71039e-17 -1.45517e-15 -6.3272e-17)
(0 0.0236736 4.28409 -9.50404e-19 -1.44247e-15 -7.25884e-18)
(1.91668e-16 0.0230339 4.30266 -1.60666e-17 -1.44611e-15 1.27759e-17)
(0 0.0224069 4.32083 -5.2785e-17 -1.45074e-15 1.33846e-17)
(9.47686e-17 0.0217986 4.33855 -4.50752e-17 -1.477e-15 4.63252e-17)
(-9.42403e-17 0.0212088 4.35587 9.6854e-18 -1.48632e-15 -3.27241e-18)
(0 0.0206311 4.37283 3.35858e-17 -1.4755e-15 -2.57365e-17)
(0 0.0200714 4.38939 7.98561e-18 -1.45369e-15 -3.36103e-17)
(0 0.0195295 4.40558 4.24861e-18 -1.44963e-15 1.30604e-17)
(-1.84313e-16 0.0189961 4.4214 1.63441e-17 -1.46859e-15 9.71043e-18)
(0 0.0184741 4.43685 -1.47308e-17 -1.44977e-15 -3.58449e-17)
(0 0.0179662 4.45197 -2.8304e-17 -1.43648e-15 -8.82236e-17)
(0 0.0174724 4.46672 2.13576e-17 -1.43387e-15 -2.73221e-17)
(-1.80238e-16 0.0169895 4.48114 7.8655e-17 -1.41552e-15 -1.71333e-18)
(0 0.0165174 4.49522 1.25374e-16 -1.38023e-15 2.52643e-17)
(-1.78234e-16 0.0160558 4.50897 1.00969e-16 -1.32993e-15 -3.08951e-17)
(1.7724e-16 0.0156018 4.52239 -2.91994e-17 -1.31466e-15 -4.5534e-18)
(0 0.0151581 4.53551 -8.37785e-17 -1.34836e-15 5.18734e-17)
(0 0.0147247 4.5483 -2.28683e-17 -1.3641e-15 4.3134e-17)
(1.74293e-16 0.0142985 4.56079 4.11617e-17 -1.37335e-15 -4.14778e-17)
(-1.73321e-16 0.0138794 4.57298 7.36127e-17 -1.33393e-15 -7.20936e-17)
(0 0.0134703 4.58483 6.90052e-17 -1.30561e-15 -6.04638e-17)
(-1.71394e-16 0.0130709 4.59643 5.37669e-17 -1.28345e-15 -7.59741e-17)
(0 0.0126755 4.60773 8.28813e-17 -1.25068e-15 -5.65241e-17)
(0 0.0122842 4.61873 1.24338e-16 -1.19949e-15 -7.53098e-17)
(0 0.0119023 4.62943 9.71084e-17 -1.16566e-15 -5.31297e-17)
(0 0.0115299 4.63987 5.16738e-17 -1.14116e-15 -2.72968e-17)
(0 0.0111613 4.65001 -3.71799e-17 -1.12662e-15 3.69921e-17)
(1.65741e-16 0.0107936 4.65989 -8.90468e-17 -1.20578e-15 -2.40398e-17)
(0 0.0104351 4.66947 -1.77306e-17 -1.221e-15 -3.94495e-17)
(0 0.0100831 4.67879 3.63843e-17 -1.21116e-15 -6.66208e-17)
(0 0.00973455 4.68781 6.46949e-17 -1.19677e-15 -1.19032e-16)
(0 0.00939229 4.69657 1.37741e-16 -1.1264e-15 -1.53287e-16)
(0 0.0090509 4.70506 1.99886e-16 -1.08697e-15 -1.01152e-16)
(0 0.00871301 4.7133 1.61482e-16 -1.05066e-15 -1.97337e-16)
(0 0.00838123 4.72124 8.52271e-17 -9.82171e-16 -1.9904e-16)
(0 0.00805548 4.72891 6.71728e-17 -9.38411e-16 -1.15438e-16)
(0 0.00773054 4.73632 7.35751e-17 -9.15534e-16 -7.96868e-17)
(0 0.00740636 4.74348 6.8927e-17 -9.05902e-16 -9.36577e-17)
(0 0.00708813 4.75037 8.31105e-17 -8.78954e-16 -5.91462e-17)
(0 0.00677322 4.75697 1.03552e-16 -8.79306e-16 -5.18175e-17)
(1.54124e-16 0.00646159 4.76334 1.08181e-16 -8.434e-16 -1.36108e-16)
(1.53265e-16 0.00614821 4.76942 1.20842e-16 -7.48609e-16 -1.21781e-16)
(1.52411e-16 0.00583808 4.77523 1.50428e-16 -6.7942e-16 -4.73104e-17)
(1.51561e-16 0.00553374 4.78075 1.17827e-16 -6.66205e-16 -1.95026e-17)
(0 0.00523013 4.786 1.01204e-16 -6.88365e-16 -1.94955e-17)
(0 0.00492726 4.791 1.51967e-16 -6.11132e-16 -4.63094e-17)
(0 0.00462516 4.79575 1.04516e-16 -5.36715e-16 -5.6861e-17)
(0 0.00432383 4.80019 9.7561e-17 -5.22747e-16 -1.04054e-16)
(0 0.00402329 4.80434 1.97689e-16 -4.79722e-16 -8.49545e-17)
(0 0.00372597 4.80823 1.44284e-16 -3.71376e-16 -1.57659e-16)
(1.45745e-16 0.00342944 4.81188 2.48316e-17 -3.54703e-16 -4.6052e-17)
(0 0.00313134 4.81522 4.29937e-18 -3.82941e-16 -4.75692e-17)
(1.44125e-16 0.00283407 4.81827 3.92014e-17 -3.61651e-16 -1.20008e-16)
(0 0.00253767 4.82102 1.56372e-16 -3.11093e-16 -1.49311e-16)
(0 0.00224213 4.82349 2.07141e-16 -1.98235e-16 -1.17719e-16)
(0 0.00194516 4.82566 1.0896e-16 -1.23766e-16 -6.6239e-17)
(0 0.0016491 4.8275 4.56777e-17 -1.10935e-16 9.03538e-17)
(0 0.00135168 4.82909 2.59513e-17 -1.25073e-16 4.9185e-17)
(0 0.00105292 4.83036 1.45525e-18 -1.17873e-16 1.62402e-17)
(0 0.000752914 4.83133 7.61026e-17 -1.5549e-16 -3.59326e-17)
(0 0.000451659 4.83198 1.57054e-16 -7.98264e-17 -2.23821e-16)
(0 0.000151503 4.83231 4.92323e-17 3.29026e-17 -7.68038e-17)
(4.25905e-18 0.619721 0.114342 -9.1141e-14 -7.23034e-14 1.38828e-13)
(0 0.556156 0.321154 -5.91247e-14 5.61022e-14 6.29642e-14)
(-3.36936e-17 0.524069 0.524069 7.30673e-16 5.21171e-14 7.21945e-16)
(3.35057e-17 0.494613 0.718677 1.72476e-14 3.06539e-14 -1.6836e-14)
(0 0.465656 0.90241 1.98157e-14 1.62848e-14 -1.95953e-14)
(0 0.436314 1.07362 1.77543e-14 7.18774e-15 -1.74751e-14)
(-6.58971e-17 0.406912 1.23166 1.4416e-14 1.7638e-15 -1.41606e-14)
(0 0.378236 1.37683 1.12278e-14 -1.18029e-15 -1.10839e-14)
(0 0.351005 1.51009 8.64927e-15 -2.65648e-15 -8.61433e-15)
(1.29602e-16 0.325673 1.63263 6.73321e-15 -3.3201e-15 -6.73068e-15)
(0 0.302442 1.74569 5.35767e-15 -3.55709e-15 -5.33185e-15)
(0 0.281338 1.8504 4.32012e-15 -3.55296e-15 -4.30493e-15)
(0 0.262266 1.94775 3.53175e-15 -3.43058e-15 -3.54697e-15)
(0 0.245067 2.03858 2.98739e-15 -3.24857e-15 -2.95226e-15)
(1.2603e-16 0.229553 2.12364 2.54554e-15 -3.03899e-15 -2.47722e-15)
(0 0.215544 2.20355 2.11378e-15 -2.85971e-15 -2.12682e-15)
(1.24629e-16 0.202868 2.27884 1.76291e-15 -2.71391e-15 -1.85478e-15)
(0 0.191364 2.34996 1.55209e-15 -2.54847e-15 -1.62487e-15)
(0 0.180896 2.41733 1.38473e-15 -2.35901e-15 -1.40152e-15)
(0 0.171334 2.48123 1.18794e-15 -2.23908e-15 -1.20159e-15)
(-1.21873e-16 0.162574 2.54203 1.04543e-15 -2.14233e-15 -1.06956e-15)
(0 0.154529 2.6 9.52505e-16 -2.00383e-15 -9.81496e-16)
(0 0.14711 2.65526 8.63113e-16 -1.89944e-15 -8.92704e-16)
(0 0.140254 2.70812 7.92246e-16 -1.81099e-15 -8.14423e-16)
(0 0.133895 2.75874 7.26338e-16 -1.70244e-15 -7.36447e-16)
(-2.37029e-16 0.127987 2.80727 6.64132e-16 -1.62056e-15 -6.39937e-16)
(0 0.122484 2.85382 6.30634e-16 -1.52507e-15 -5.55508e-16)
(0 0.117341 2.8986 5.8555e-16 -1.40931e-15 -5.50698e-16)
(0 0.112529 2.94161 4.9946e-16 -1.32456e-15 -5.64924e-16)
(0 0.108021 2.98309 4.18863e-16 -1.30039e-15 -4.92441e-16)
(0 0.103784 3.023 3.81182e-16 -1.28576e-15 -4.43068e-16)
(2.29211e-16 0.0997922 3.06156 3.69371e-16 -1.2302e-15 -4.23072e-16)
(2.27933e-16 0.0960302 3.09875 3.19586e-16 -1.12668e-15 -4.16641e-16)
(1.13331e-16 0.0924646 3.13469 2.60527e-16 -1.06647e-15 -3.55443e-16)
(0 0.0891332 3.16945 2.99151e-16 -1.07401e-15 -2.47331e-16)
(0 0.0859662 3.20305 3.37408e-16 -9.99963e-16 -2.68574e-16)
(0 0.0829053 3.23559 2.85323e-16 -9.34523e-16 -2.45092e-16)
(-2.21651e-16 0.0800226 3.26711 2.55615e-16 -9.49093e-16 -2.07686e-16)
(0 0.0773153 3.29764 2.64408e-16 -9.80351e-16 -2.31971e-16)
(0 0.0747446 3.3273 2.75302e-16 -9.1417e-16 -2.94094e-16)
(2.17965e-16 0.0722363 3.35602 3.08446e-16 -8.34994e-16 -2.73703e-16)
(0 0.069861 3.38393 3.36697e-16 -8.24432e-16 -2.61601e-16)
(0 0.0676527 3.41102 2.53945e-16 -7.21842e-16 -2.70452e-16)
(0 0.0655025 3.43731 1.60741e-16 -6.81325e-16 -1.88916e-16)
(-2.13145e-16 0.0634092 3.46286 1.77811e-16 -7.18649e-16 -1.22046e-16)
(0 0.0614424 3.48774 1.44248e-16 -7.17686e-16 -1.18225e-16)
(-2.10775e-16 0.0595307 3.51191 6.24224e-17 -7.15156e-16 -1.5147e-16)
(0 0.0577074 3.5354 2.39037e-17 -6.9475e-16 -9.93004e-17)
(0 0.0560063 3.55828 2.37504e-17 -6.76739e-16 -9.92351e-17)
(0 0.0543224 3.58057 6.17067e-17 -6.7988e-16 -1.28623e-16)
(0 0.0526895 3.60225 6.5989e-17 -6.49214e-16 -1.44956e-16)
(0 0.0511071 3.62339 5.16648e-17 -6.23153e-16 -1.16538e-16)
(0 0.0496417 3.64393 6.59584e-17 -5.88765e-16 -1.22785e-16)
(0 0.0482249 3.66399 3.66046e-17 -5.24665e-16 -1.4359e-16)
(2.01557e-16 0.0467888 3.68354 2.51109e-17 -5.00168e-16 -1.06735e-16)
(0 0.0454336 3.70258 7.70361e-17 -4.84835e-16 -1.23812e-16)
(0 0.0441579 3.72114 6.79705e-17 -4.40328e-16 -9.94528e-17)
(0 0.042928 3.7392 3.11331e-17 -4.01224e-16 -8.5932e-17)
(0 0.0417104 3.75689 4.13482e-17 -3.97892e-16 -5.55277e-17)
(0 0.0405373 3.77409 -2.10126e-18 -3.25693e-16 -1.84278e-17)
(0 0.0394084 3.79086 -3.68341e-17 -3.45591e-16 -2.49039e-17)
(0 0.0382908 3.80726 5.18829e-17 -3.94233e-16 -3.75945e-17)
(0 0.0372163 3.82325 9.01187e-17 -2.86899e-16 -9.38038e-17)
(0 0.0361843 3.83885 3.65357e-17 -2.3768e-16 -4.02465e-17)
(0 0.0351942 3.85405 8.99073e-18 -2.54796e-16 -1.75227e-18)
(0 0.0342141 3.8689 -1.95355e-17 -2.28009e-16 3.86015e-17)
(3.76961e-16 0.0332437 3.88339 -3.02514e-17 -2.29629e-16 7.14235e-18)
(0 0.032345 3.89754 2.62967e-17 -2.44684e-16 -3.56638e-19)
(0 0.0314555 3.91137 6.3865e-17 -2.03147e-16 -4.31557e-17)
(1.85346e-16 0.0305748 3.9248 2.33632e-17 -1.65406e-16 -3.30008e-17)
(0 0.0297335 3.93798 -7.49136e-18 -1.74753e-16 -6.22078e-17)
(3.66571e-16 0.0289006 3.9508 1.11094e-17 -2.12649e-16 3.45517e-18)
(-3.64528e-16 0.0281061 3.9633 4.03221e-18 -2.16208e-16 -2.76806e-18)
(3.62496e-16 0.0273198 3.97553 -5.69217e-18 -1.46754e-16 -5.06457e-17)
(0 0.0265412 3.98744 3.63238e-17 -9.51858e-17 1.18944e-17)
(-1.79233e-16 0.0258002 3.99909 1.02381e-16 -1.01118e-16 8.35375e-17)
(-3.56468e-16 0.0250666 4.01042 1.66166e-16 -1.37145e-16 6.83066e-17)
(0 0.0243403 4.02149 1.33487e-16 -1.14412e-16 -9.25563e-17)
(0 0.0236505 4.03226 -8.57564e-18 -4.14214e-17 -1.36859e-16)
(0 0.0229678 4.04281 -7.69438e-17 -4.67067e-17 -3.18111e-17)
(3.48586e-16 0.0222918 4.05306 -3.06105e-17 -9.88351e-17 -2.06083e-17)
(0 0.0216513 4.06304 5.63786e-17 -9.84148e-17 -7.5054e-17)
(-3.4471e-16 0.0209889 4.07276 1.07602e-16 -4.50211e-17 -3.61469e-17)
(0 0.0203613 4.08224 9.2194e-17 -4.28004e-17 -5.75547e-17)
(0 0.0197685 4.0915 7.22579e-17 -1.87972e-17 -4.99105e-17)
(0 0.0191535 4.10047 1.10927e-16 2.47889e-17 -5.9851e-17)
(0 0.0185448 4.10925 1.58728e-16 4.98739e-17 -1.01194e-17)
(-3.35209e-16 0.01797 4.11776 1.30309e-16 5.8035e-17 -3.42308e-17)
(0 0.0174011 4.12602 7.4825e-17 8.41935e-17 3.03734e-17)
(0 0.0168378 4.13404 -3.66219e-17 5.96212e-17 1.80231e-18)
(0 0.0162805 4.14186 -7.97331e-17 3.31511e-17 -6.52566e-17)
(0 0.0157286 4.14944 -1.61863e-18 6.13885e-17 -8.2406e-18)
(-3.2597e-16 0.0151826 4.15682 4.55138e-17 4.72185e-17 -9.71563e-18)
(0 0.014642 4.16395 9.26766e-17 6.8959e-17 -6.67904e-17)
(0 0.0141338 4.17083 1.57792e-16 1.23096e-16 -5.57717e-17)
(0 0.0136307 4.17755 2.04788e-16 7.68988e-17 -1.37389e-16)
(0 0.0131065 4.18402 1.89458e-16 7.61733e-17 -2.16775e-16)
(0 0.0125876 4.19024 1.19035e-16 1.7453e-16 -1.60678e-16)
(3.15218e-16 0.0121002 4.19631 7.14103e-17 1.89683e-16 -4.04642e-17)
(0 0.0116178 4.20212 6.16993e-17 1.43277e-16 6.5314e-18)
(3.11714e-16 0.0111405 4.20773 6.88572e-17 1.40168e-16 -7.45785e-17)
(0 0.0106425 4.21308 7.13554e-17 1.47351e-16 -2.17102e-17)
(-3.08248e-16 0.010175 4.21828 8.4026e-17 8.72401e-17 -1.5344e-17)
(0 0.00971274 4.22323 1.26353e-16 8.72921e-17 -3.08504e-17)
(0 0.00922985 4.22797 1.44033e-16 1.48617e-16 -2.27474e-17)
(-6.06245e-16 0.00875217 4.23252 1.28185e-16 1.51393e-16 1.02218e-17)
(0 0.0082794 4.23686 7.2567e-17 1.131e-16 -8.36429e-17)
(0 0.00783649 4.24096 8.86011e-17 7.61989e-17 -2.19553e-18)
(0 0.00739826 4.24485 1.57712e-16 4.76533e-17 1.66381e-16)
(0 0.00694023 4.24851 9.84778e-17 2.22994e-17 6.37717e-17)
(0 0.00646261 4.25196 7.13076e-17 3.326e-17 -8.726e-18)
(0 0.00601429 4.25523 1.71623e-16 -6.14297e-18 -3.49208e-17)
(0 0.00559494 4.25826 1.54313e-16 2.93013e-17 -1.48251e-16)
(0 0.00515617 4.26105 3.13437e-17 6.57774e-17 -1.29545e-16)
(-2.8825e-16 0.0046982 4.26366 1.01162e-18 -1.09394e-17 2.71147e-18)
(0 0.00424519 4.26604 5.44325e-17 -4.50195e-18 3.63603e-18)
(0 0.00379707 4.26814 1.76784e-16 4.34681e-17 5.06189e-17)
(-2.83456e-16 0.00335382 4.27007 2.24785e-16 9.45118e-17 1.36631e-17)
(-2.81876e-16 0.00289214 4.27178 1.13995e-16 1.43534e-16 5.85735e-17)
(0 0.0024585 4.27322 1.84599e-17 8.4275e-17 1.75776e-16)
(-2.78742e-16 0.00202985 4.27445 -1.43083e-18 -4.09104e-18 9.99455e-17)
(0 0.00158279 4.27543 -2.04327e-17 -9.38815e-18 6.88547e-17)
(0 0.00114078 4.27615 5.64461e-17 -7.96665e-17 -3.76687e-17)
(0 0.000680906 4.27667 1.69337e-16 -3.89232e-17 -5.3281e-17)
(0 0.000226124 4.27691 5.52788e-17 3.6691e-17 -4.24955e-18)
(0 0.833179 0.107869 -4.83117e-14 -5.48495e-14 6.10271e-14)
(0 0.756992 0.301891 -4.56376e-14 1.23785e-14 4.8668e-14)
(-3.35057e-17 0.718677 0.494613 -1.68414e-14 3.06452e-14 1.72861e-14)
(0 0.678126 0.678126 -3.69234e-16 2.81436e-14 -3.23258e-16)
(0 0.635356 0.846933 7.81697e-15 2.10779e-14 -8.13144e-15)
(0 0.591065 0.99875 1.05103e-14 1.4012e-14 -1.05714e-14)
(0 0.546915 1.13401 1.0437e-14 8.49692e-15 -1.04216e-14)
(-1.30329e-16 0.504628 1.25459 9.26848e-15 4.69988e-15 -9.27218e-15)
(0 0.465339 1.36269 7.8298e-15 2.27004e-15 -7.89886e-15)
(0 0.429555 1.4604 6.51034e-15 7.60592e-16 -6.59771e-15)
(1.28162e-16 0.397329 1.54944 5.43058e-15 -1.65155e-16 -5.49821e-15)
(-1.27447e-16 0.368465 1.63121 4.54922e-15 -7.11711e-16 -4.55728e-15)
(0 0.34266 1.70681 3.84208e-15 -1.01362e-15 -3.8238e-15)
(-2.52061e-16 0.319572 1.7771 3.31225e-15 -1.15807e-15 -3.20301e-15)
(0 0.298883 1.84274 2.84344e-15 -1.23247e-15 -2.76316e-15)
(-1.24629e-16 0.280286 1.90435 2.38023e-15 -1.27455e-15 -2.39956e-15)
(1.23934e-16 0.263508 1.96236 2.04023e-15 -1.28053e-15 -2.14942e-15)
(0 0.24834 2.01714 1.84255e-15 -1.23558e-15 -1.87547e-15)
(-2.45113e-16 0.23452 2.06902 1.61365e-15 -1.15134e-15 -1.65348e-15)
(0 0.221929 2.11828 1.35732e-15 -1.13613e-15 -1.47754e-15)
(0 0.210487 2.1651 1.22082e-15 -1.13347e-15 -1.31059e-15)
(0 0.199889 2.20977 1.13347e-15 -1.07169e-15 -1.17362e-15)
(0 0.190119 2.25237 1.01988e-15 -1.02078e-15 -1.08145e-15)
(2.38357e-16 0.181167 2.29311 9.37175e-16 -9.71863e-16 -9.05143e-16)
(0 0.172861 2.33212 8.63947e-16 -9.06688e-16 -8.24915e-16)
(0 0.165112 2.36955 7.83871e-16 -8.43377e-16 -7.14356e-16)
(-2.34393e-16 0.157912 2.40544 7.54002e-16 -8.41657e-16 -5.65575e-16)
(0 0.151176 2.43994 7.22784e-16 -8.57326e-16 -5.89041e-16)
(0 0.144895 2.47317 6.0124e-16 -7.68337e-16 -6.44647e-16)
(2.30496e-16 0.138986 2.50512 4.61235e-16 -6.87464e-16 -6.4029e-16)
(2.29211e-16 0.133444 2.53587 4.27936e-16 -6.8426e-16 -5.62386e-16)
(0 0.128263 2.56558 4.74234e-16 -6.69127e-16 -4.87891e-16)
(-2.26662e-16 0.123324 2.59425 4.5133e-16 -5.89331e-16 -4.35587e-16)
(0 0.118698 2.62191 3.34039e-16 -5.03929e-16 -3.75789e-16)
(2.24142e-16 0.114307 2.64866 3.46575e-16 -5.42701e-16 -3.40364e-16)
(-4.45786e-16 0.110147 2.67448 4.11352e-16 -5.45137e-16 -2.95725e-16)
(0 0.106213 2.6995 3.17782e-16 -4.80922e-16 -2.88627e-16)
(0 0.102467 2.72373 2.3938e-16 -5.03716e-16 -2.73778e-16)
(4.38373e-16 0.0989418 2.7472 2.99475e-16 -5.60718e-16 -2.77998e-16)
(-2.17965e-16 0.0955616 2.76996 3.74807e-16 -4.99062e-16 -1.99006e-16)
(0 0.0923239 2.79196 3.56018e-16 -4.32687e-16 -2.42048e-16)
(-2.15541e-16 0.089263 2.81335 3.6996e-16 -4.33892e-16 -2.38412e-16)
(-4.2868e-16 0.0863047 2.83411 3.30336e-16 -3.369e-16 -1.96454e-16)
(2.13145e-16 0.0834828 2.85421 1.83025e-16 -2.8145e-16 -2.31434e-16)
(0 0.0808308 2.87373 1.48903e-16 -3.42596e-16 -1.8262e-16)
(-2.10775e-16 0.0782761 2.89272 1.4171e-16 -3.88652e-16 -1.47591e-16)
(0 0.0757822 2.91113 9.72389e-17 -3.63778e-16 -1.71409e-16)
(4.16864e-16 0.0734176 2.9291 6.58939e-17 -3.33852e-16 -1.48998e-16)
(2.0727e-16 0.0711805 2.94649 4.49325e-17 -3.52301e-16 -1.40713e-16)
(-2.06115e-16 0.0690005 2.96339 8.26314e-17 -3.5035e-16 -1.57951e-16)
(0 0.0669105 2.97985 1.0113e-16 -3.11754e-16 -1.22088e-16)
(0 0.064876 2.99587 8.12626e-17 -3.05664e-16 -1.17965e-16)
(0 0.0629291 3.01148 1.08575e-16 -2.89511e-16 -1.58102e-16)
(4.03115e-16 0.0611027 3.02661 9.8017e-17 -2.13898e-16 -1.46816e-16)
(0 0.0592948 3.04134 7.38637e-17 -2.06145e-16 -1.39412e-16)
(-1.99317e-16 0.0575382 3.05576 1.06949e-16 -2.0218e-16 -1.24852e-16)
(-3.96411e-16 0.0558324 3.06974 1.04193e-16 -1.6098e-16 -9.95087e-17)
(0 0.054242 3.08336 7.13975e-17 -1.38266e-16 -9.12072e-17)
(0 0.0527006 3.09662 8.28827e-17 -1.05819e-16 -4.84311e-17)
(-3.89819e-16 0.051142 3.10953 1.51844e-17 -9.9607e-17 3.05669e-17)
(1.93823e-16 0.0496958 3.12209 -4.83967e-17 -1.2188e-16 -7.04e-17)
(-1.92742e-16 0.0482965 3.13438 9.01149e-17 -1.50193e-16 1.94057e-17)
(-1.91668e-16 0.0469111 3.14631 1.50176e-16 -9.86197e-17 -7.64205e-17)
(0 0.0455714 3.15794 5.93988e-17 -1.96129e-17 -1.06879e-16)
(0 0.0442766 3.16929 2.92e-17 -5.05972e-18 -2.18327e-17)
(-1.88481e-16 0.0430263 3.18034 -2.91941e-18 -3.60094e-17 4.44577e-17)
(-5.6229e-16 0.0418196 3.19112 -2.95482e-17 -6.01471e-17 2.75248e-17)
(0 0.0406562 3.20164 4.60111e-17 -4.64008e-17 1.4508e-17)
(0 0.0394737 3.21184 9.19923e-17 -4.04187e-17 -7.09589e-18)
(-3.68626e-16 0.0383641 3.22178 2.7603e-17 -2.92245e-17 -4.98555e-17)
(3.66571e-16 0.0372966 3.2315 -1.11732e-17 1.00681e-17 -1.01577e-16)
(3.64528e-16 0.0362091 3.24095 1.11639e-17 3.78808e-18 -5.38122e-17)
(0 0.035193 3.25017 3.8248e-17 -3.15234e-17 8.05917e-19)
(-3.60475e-16 0.0341872 3.25914 6.16865e-17 3.55514e-17 8.84936e-17)
(0 0.0332212 3.26792 6.93567e-17 1.08116e-16 -1.90247e-17)
(0 0.0322651 3.27644 7.15193e-17 8.37008e-17 -6.18713e-17)
(3.54481e-16 0.0313184 3.28474 1.38064e-16 -3.66361e-17 -1.41522e-16)
(0 0.0304108 3.29281 1.82179e-16 -5.22649e-17 -1.68206e-16)
(7.01079e-16 0.0295412 3.30071 4.43739e-17 1.04906e-16 -2.63055e-16)
(0 0.0286808 3.30834 -8.87966e-17 1.39992e-16 -1.47038e-16)
(0 0.0277999 3.31584 -3.38722e-17 6.69299e-17 -1.68984e-16)
(3.4471e-16 0.0269567 3.32307 8.79432e-17 7.87156e-17 -1.44451e-16)
(-3.42789e-16 0.0261505 3.33012 1.14215e-16 1.17442e-16 -1.32187e-16)
(0 0.0253808 3.33705 9.88202e-17 9.82013e-17 -1.02335e-16)
(3.38978e-16 0.0245908 3.3437 1.15316e-16 1.01098e-16 -1.22268e-16)
(0 0.0238367 3.35018 1.42821e-16 1.67752e-16 -1.2098e-16)
(-3.35209e-16 0.0230905 3.35652 1.52594e-16 1.79347e-16 -4.49735e-17)
(-3.33341e-16 0.0223239 3.36265 1.18113e-16 1.57254e-16 -1.26184e-17)
(0 0.0215928 3.36859 6.34345e-17 1.53746e-16 -1.43498e-18)