/*--------------------------------*- C++ -*----------------------------------*\
| =========                 |                                                 |
| \\      /  F ield         | OpenFOAM: The Open Source CFD Toolbox           |
|  \\    /   O peration     | Version:  2306                                  |
|   \\  /    A nd           | Website:  www.openfoam.com                      |
|    \\/     M anipulation  |                                                 |
\*---------------------------------------------------------------------------*/
// * * * * * * * * * * * * * * * * * * * * * * * * * * * * * * * * * * * * * //
FoamFile
{
    version         2;
    format          ascii;
    class           volVectorField;
    location        "98.07";
    object          Udns;
}

dimensions      [ 0 1 -1 0 0 0 0 ];

internalField   nonuniform List<vector> 
15625
(
(0.000421502 5.01872e-11 5.01872e-11)
(0.00115524 9.45565e-09 -7.71516e-09)
(0.00182283 1.06633e-07 -4.78197e-08)
(0.00245216 4.50491e-07 -1.33181e-07)
(0.00305339 1.21871e-06 -2.61821e-07)
(0.0036341 2.5862e-06 -4.29317e-07)
(0.00419807 4.69839e-06 -6.27609e-07)
(0.00474761 7.68296e-06 -8.51548e-07)
(0.00528508 1.16614e-05 -1.10143e-06)
(0.00581174 1.67573e-05 -1.37832e-06)
(0.00632828 2.31032e-05 -1.68461e-06)
(0.00683492 3.085e-05 -2.02566e-06)
(0.00733179 4.01618e-05 -2.40503e-06)
(0.00781895 5.12186e-05 -2.82181e-06)
(0.00829631 6.41956e-05 -3.27315e-06)
(0.00876347 7.92488e-05 -3.75325e-06)
(0.00921991 9.6514e-05 -4.25431e-06)
(0.00966485 0.000116057 -4.7633e-06)
(0.0100975 0.000137919 -5.26593e-06)
(0.0105171 0.000162062 -5.74926e-06)
(0.0109229 0.000188402 -6.2009e-06)
(0.0113143 0.000216804 -6.60936e-06)
(0.0116904 0.000247051 -6.96489e-06)
(0.0120505 0.000278906 -7.25831e-06)
(0.0123943 0.000312108 -7.48588e-06)
(0.0127214 0.000346379 -7.6465e-06)
(0.0130318 0.000381433 -7.73995e-06)
(0.0133253 0.000416981 -7.76849e-06)
(0.0136019 0.000452723 -7.73496e-06)
(0.0138614 0.00048838 -7.64335e-06)
(0.0141042 0.000523699 -7.49941e-06)
(0.0143305 0.000558426 -7.3092e-06)
(0.0145406 0.00059235 -7.0783e-06)
(0.0147351 0.0006253 -6.81178e-06)
(0.0149143 0.000657109 -6.51482e-06)
(0.0150788 0.000687628 -6.1922e-06)
(0.0152291 0.000716731 -5.84832e-06)
(0.0153658 0.000744291 -5.48771e-06)
(0.0154894 0.000770215 -5.11464e-06)
(0.0156005 0.000794446 -4.7331e-06)
(0.0156997 0.000816927 -4.34718e-06)
(0.0157876 0.00083762 -3.96025e-06)
(0.0158649 0.000856513 -3.57478e-06)
(0.015932 0.000873595 -3.19326e-06)
(0.0159897 0.000888867 -2.81807e-06)
(0.0160384 0.000902349 -2.45135e-06)
(0.0160788 0.000914068 -2.09524e-06)
(0.0161114 0.000924053 -1.75153e-06)
(0.0161369 0.000932348 -1.4207e-06)
(0.0161556 0.000939002 -1.10296e-06)
(0.0161683 0.000944068 -7.98613e-07)
(0.0161755 0.000947601 -5.08431e-07)
(0.0161775 0.000949661 -2.33406e-07)
(0.016175 0.000950312 2.54971e-08)
(0.0161683 0.00094962 2.6828e-07)
(0.016158 0.000947653 4.95836e-07)
(0.0161444 0.000944484 7.09127e-07)
(0.0161278 0.000940175 9.09529e-07)
(0.0161086 0.000934766 1.09927e-06)
(0.0160871 0.000928296 1.28077e-06)
(0.0160634 0.000920804 1.45607e-06)
(0.0160379 0.00091232 1.62464e-06)
(0.0160109 0.000902872 1.78492e-06)
(0.0159828 0.00089249 1.93532e-06)
(0.0159537 0.00088122 2.07462e-06)
(0.015924 0.000869127 2.20191e-06)
(0.0158939 0.000856278 2.31634e-06)
(0.0158637 0.000842741 2.4175e-06)
(0.0158335 0.000828572 2.50657e-06)
(0.0158034 0.000813828 2.58506e-06)
(0.0157738 0.000798564 2.65449e-06)
(0.0157448 0.000782826 2.71627e-06)
(0.0157164 0.000766647 2.77173e-06)
(0.0156891 0.000750064 2.82227e-06)
(0.0156628 0.000733102 2.86907e-06)
(0.0156378 0.000715769 2.91289e-06)
(0.0156144 0.000698069 2.9545e-06)
(0.0155927 0.00068001 2.99437e-06)
(0.0155729 0.000661616 3.03111e-06)
(0.0155553 0.000642918 3.06266e-06)
(0.0155399 0.000623947 3.08694e-06)
(0.0155268 0.00060474 3.10299e-06)
(0.0155162 0.000585343 3.11102e-06)
(0.015508 0.000565799 3.11131e-06)
(0.0155023 0.000546161 3.10369e-06)
(0.0154993 0.000526496 3.08656e-06)
(0.0154992 0.000506879 3.05802e-06)
(0.015502 0.000487382 3.01651e-06)
(0.015508 0.00046806 2.96424e-06)
(0.0155172 0.000448958 2.90556e-06)
(0.0155295 0.000430124 2.84497e-06)
(0.0155451 0.000411588 2.78486e-06)
(0.0155638 0.000393358 2.72448e-06)
(0.0155855 0.00037544 2.66286e-06)
(0.0156101 0.000357838 2.59975e-06)
(0.0156375 0.000340538 2.53784e-06)
(0.0156673 0.00032352 2.48055e-06)
(0.0156993 0.000306767 2.43079e-06)
(0.0157333 0.000290274 2.38557e-06)
(0.0157692 0.000274041 2.33842e-06)
(0.0158067 0.000258069 2.28279e-06)
(0.0158457 0.000242392 2.21669e-06)
(0.0158859 0.000227085 2.14367e-06)
(0.0159268 0.000212228 2.06774e-06)
(0.0159683 0.000197868 1.99217e-06)
(0.01601 0.000183976 1.91828e-06)
(0.0160514 0.000170509 1.84717e-06)
(0.0160922 0.000157433 1.77967e-06)
(0.0161322 0.000144744 1.71547e-06)
(0.0161715 0.000132452 1.6539e-06)
(0.0162099 0.000120562 1.59408e-06)
(0.0162471 0.000109082 1.53367e-06)
(0.0162831 9.80192e-05 1.46961e-06)
(0.0163174 8.73821e-05 1.39883e-06)
(0.01635 7.72073e-05 1.32003e-06)
(0.0163807 6.75512e-05 1.23308e-06)
(0.0164093 5.84742e-05 1.13823e-06)
(0.0164358 5.00799e-05 1.04159e-06)
(0.0164596 4.25117e-05 9.54824e-07)
(0.0164804 3.5896e-05 8.89803e-07)
(0.0164981 2.97725e-05 8.49569e-07)
(0.0165126 2.30414e-05 8.27508e-07)
(0.0165237 1.45362e-05 8.1631e-07)
(0.0165314 3.05106e-06 8.08411e-07)
(0.0165356 -1.26599e-05 7.95987e-07)
(0.00115524 -7.71516e-09 9.45565e-09)
(0.00328764 -4.29396e-08 -4.29396e-08)
(0.00526852 1.03345e-07 -3.55087e-07)
(0.00714668 8.31833e-07 -1.02531e-06)
(0.00894511 2.60446e-06 -2.05356e-06)
(0.0106842 5.88859e-06 -3.41443e-06)
(0.0123743 1.11117e-05 -5.05945e-06)
(0.0140217 1.86763e-05 -6.95673e-06)
(0.0156335 2.89776e-05 -9.10635e-06)
(0.0172132 4.24219e-05 -1.15171e-05)
(0.0187627 5.94337e-05 -1.42055e-05)
(0.0202828 8.04638e-05 -1.72012e-05)
(0.0217736 0.000105981 -2.05208e-05)
(0.0232354 0.000136474 -2.41502e-05)
(0.0246679 0.000172404 -2.80593e-05)
(0.0260697 0.000214159 -3.21919e-05)
(0.0274395 0.00026207 -3.64769e-05)
(0.0287747 0.000316275 -4.08092e-05)
(0.0300729 0.000376845 -4.50743e-05)
(0.031332 0.000443651 -4.91671e-05)
(0.0325497 0.000516448 -5.29857e-05)
(0.033724 0.00059486 -5.64373e-05)
(0.0348524 0.000678301 -5.94462e-05)
(0.0359328 0.000766142 -6.19413e-05)
(0.0369639 0.000857692 -6.38916e-05)
(0.0379453 0.00095222 -6.52854e-05)
(0.0388763 0.00104897 -6.61191e-05)
(0.0397566 0.00114718 -6.64107e-05)
(0.0405859 0.00124604 -6.61835e-05)
(0.0413643 0.00134481 -6.54695e-05)
(0.0420923 0.00144281 -6.43137e-05)
(0.0427708 0.00153935 -6.27635e-05)
(0.0434008 0.00163385 -6.08644e-05)
(0.0439837 0.00172584 -5.86595e-05)
(0.044521 0.00181486 -5.61934e-05)
(0.0450142 0.00190048 -5.3506e-05)
(0.0454648 0.00198237 -5.06336e-05)
(0.0458745 0.00206015 -4.76136e-05)
(0.0462449 0.00213358 -4.44812e-05)
(0.0465778 0.00220246 -4.127e-05)
(0.0468751 0.00226664 -3.80143e-05)
(0.0471386 0.00232599 -3.47421e-05)
(0.04737 0.00238045 -3.14739e-05)
(0.0475712 0.00242997 -2.82301e-05)
(0.0477439 0.00247455 -2.50307e-05)
(0.0478898 0.0025142 -2.1894e-05)
(0.0480106 0.00254897 -1.88387e-05)
(0.0481082 0.00257893 -1.58804e-05)
(0.0481842 0.00260417 -1.30241e-05)
(0.0482403 0.00262481 -1.02727e-05)
(0.0482781 0.00264097 -7.62989e-06)
(0.0482991 0.00265279 -5.10403e-06)
(0.048305 0.00266045 -2.70561e-06)
(0.0482971 0.00266409 -4.44894e-07)
(0.048277 0.00266391 1.67754e-06)
(0.0482457 0.00266008 3.67e-06)
(0.0482045 0.00265281 5.54147e-06)
(0.0481547 0.00264228 7.30353e-06)
(0.0480969 0.00262859 8.973e-06)
(0.0480319 0.00261185 1.05679e-05)
(0.0479606 0.00259218 1.21038e-05)
(0.0478839 0.00256967 1.35772e-05)
(0.0478027 0.0025444 1.49774e-05)
(0.047718 0.00251648 1.62937e-05)
(0.0476306 0.00248602 1.75164e-05)
(0.0475413 0.00245321 1.86377e-05)
(0.0474508 0.00241821 1.96497e-05)
(0.0473598 0.0023812 2.05485e-05)
(0.0472689 0.00234235 2.1344e-05)
(0.0471786 0.00230181 2.20488e-05)
(0.0470894 0.00225975 2.26757e-05)
(0.047002 0.00221628 2.32363e-05)
(0.0469168 0.00217151 2.37413e-05)
(0.0468344 0.00212552 2.42017e-05)
(0.0467553 0.0020784 2.46271e-05)
(0.0466801 0.00203017 2.50241e-05)
(0.0466095 0.00198086 2.53993e-05)
(0.0465442 0.00193052 2.57568e-05)
(0.0464846 0.00187921 2.60857e-05)
(0.0464314 0.001827 2.63697e-05)
(0.0463849 0.00177397 2.65921e-05)
(0.0463455 0.00172023 2.67448e-05)
(0.0463134 0.00166591 2.68284e-05)
(0.0462886 0.00161116 2.68441e-05)
(0.0462713 0.00155611 2.67904e-05)
(0.046262 0.00150094 2.66573e-05)
(0.0462612 0.00144582 2.64335e-05)
(0.0462695 0.00139093 2.61098e-05)
(0.0462871 0.00133641 2.57019e-05)
(0.0463143 0.00128239 2.52403e-05)
(0.046351 0.00122899 2.47561e-05)
(0.0463974 0.00117631 2.42664e-05)
(0.0464532 0.00112439 2.37673e-05)
(0.0465181 0.00107325 2.32531e-05)
(0.0465917 0.00102293 2.27235e-05)
(0.0466735 0.000973423 2.21973e-05)
(0.0467627 0.000924718 2.16988e-05)
(0.0468586 0.000876806 2.12485e-05)
(0.0469604 0.000829684 2.08268e-05)
(0.0470678 0.000783352 2.03908e-05)
(0.0471802 0.000737815 1.98967e-05)
(0.047297 0.00069315 1.93304e-05)
(0.0474171 0.00064952 1.87142e-05)
(0.0475399 0.000607102 1.80728e-05)
(0.0476641 0.000566007 1.74273e-05)
(0.0477888 0.000526196 1.67879e-05)
(0.0479128 0.000487601 1.61641e-05)
(0.0480349 0.00045017 1.55631e-05)
(0.0481549 0.000413909 1.49839e-05)
(0.0482724 0.000378844 1.4423e-05)
(0.0483873 0.000345 1.38751e-05)
(0.0484989 0.000312402 1.33234e-05)
(0.0486065 0.000281079 1.2745e-05)
(0.0487093 0.00025106 1.21175e-05)
(0.0488068 0.000222402 1.14315e-05)
(0.0488987 0.000195178 1.06872e-05)
(0.0489845 0.000169477 9.88745e-06)
(0.0490636 0.000145578 9.08177e-06)
(0.049135 0.00012394 8.3636e-06)
(0.0491975 0.000104975 7.82809e-06)
(0.0492506 8.73357e-05 7.49912e-06)
(0.0492939 6.77623e-05 7.32265e-06)
(0.0493272 4.2795e-05 7.23904e-06)
(0.0493503 8.85763e-06 7.18655e-06)
(0.049363 -3.77447e-05 7.10135e-06)
(0.00182283 -4.78197e-08 1.06633e-07)
(0.00526852 -3.55087e-07 1.03345e-07)
(0.00852312 -5.86744e-07 -5.86744e-07)
(0.0116317 -1.27485e-07 -2.19226e-06)
(0.0146191 1.72798e-06 -4.73287e-06)
(0.0175136 5.69706e-06 -8.1627e-06)
(0.0203297 1.24758e-05 -1.23928e-05)
(0.023077 2.27475e-05 -1.73646e-05)
(0.0257659 3.71971e-05 -2.30775e-05)
(0.0284023 5.6539e-05 -2.95556e-05)
(0.0309889 8.15091e-05 -3.68338e-05)
(0.0335266 0.000112854 -4.49565e-05)
(0.0360157 0.000151326 -5.39353e-05)
(0.0384564 0.000197672 -6.37162e-05)
(0.0408482 0.000252577 -7.42032e-05)
(0.0431888 0.000316586 -8.52295e-05)
(0.0454754 0.000390146 -9.65961e-05)
(0.0477043 0.000473405 -0.000108036)
(0.0498713 0.000566415 -0.000119263)
(0.0519725 0.000668935 -0.00013001)
(0.0540045 0.000780559 -0.000140018)
(0.0559636 0.000900696 -0.000149054)
(0.057846 0.00102846 -0.000156938)
(0.059648 0.00116291 -0.000163501)
(0.0613677 0.00130302 -0.000168664)
(0.0630041 0.00144773 -0.000172395)
(0.0645564 0.00159592 -0.000174679)
(0.0660241 0.00174647 -0.000175565)
(0.0674065 0.00189819 -0.000175111)
(0.0687039 0.00204997 -0.000173397)
(0.0699174 0.00220081 -0.000170532)
(0.0710482 0.00234968 -0.000166632)
(0.0720981 0.0024957 -0.00016181)
(0.0730694 0.00263817 -0.000156181)
(0.0739648 0.00277636 -0.000149862)
(0.0747866 0.00290964 -0.000142954)
(0.0755374 0.00303748 -0.00013555)
(0.0762199 0.00315931 -0.000127744)
(0.076837 0.00327474 -0.000119625)
(0.0773916 0.00338345 -0.000111281)
(0.0778868 0.00348516 -0.000102802)
(0.0783256 0.00357965 -9.42602e-05)
(0.078711 0.00366683 -8.5706e-05)
(0.0790459 0.00374658 -7.71904e-05)
(0.0793333 0.00381884 -6.87643e-05)
(0.079576 0.00388362 -6.04771e-05)
(0.0797769 0.00394093 -5.23793e-05)
(0.079939 0.00399083 -4.45138e-05)
(0.0800649 0.00403343 -3.68959e-05)
(0.0801576 0.0040689 -2.95361e-05)
(0.0802198 0.00409738 -2.24468e-05)
(0.080254 0.00411909 -1.56545e-05)
(0.0802628 0.00413424 -9.19146e-06)
(0.0802487 0.00414307 -3.08954e-06)
(0.080214 0.00414584 2.64758e-06)
(0.0801608 0.00414285 8.04217e-06)
(0.080091 0.00413438 1.31183e-05)
(0.0800067 0.00412072 1.79053e-05)
(0.0799091 0.00410204 2.24434e-05)
(0.0797996 0.00407851 2.67752e-05)
(0.0796795 0.00405031 3.09377e-05)
(0.0795504 0.00401759 3.4925e-05)
(0.0794137 0.0039805 3.87148e-05)
(0.0792712 0.00393919 4.22841e-05)
(0.0791243 0.00389385 4.56101e-05)
(0.0789742 0.00384474 4.867e-05)
(0.078822 0.00379212 5.14405e-05)
(0.0786689 0.00373625 5.39103e-05)
(0.0785159 0.00367738 5.61056e-05)
(0.0783638 0.00361577 5.80607e-05)
(0.0782138 0.00355168 5.98104e-05)
(0.0780665 0.00348529 6.13837e-05)
(0.0779229 0.00341673 6.28061e-05)
(0.0777839 0.00334615 6.41041e-05)
(0.0776505 0.00327366 6.53016e-05)
(0.0775236 0.00319934 6.64165e-05)
(0.0774044 0.00312326 6.7467e-05)
(0.0772938 0.0030455 6.84648e-05)
(0.0771929 0.00296616 6.9383e-05)
(0.0771024 0.00288533 7.01805e-05)
(0.0770233 0.00280313 7.08156e-05)
(0.0769561 0.00271972 7.12669e-05)
(0.0769009 0.00263533 7.15341e-05)
(0.0768579 0.00255018 7.16181e-05)
(0.0768273 0.00246453 7.15154e-05)
(0.07681 0.00237858 7.12084e-05)
(0.0768069 0.00229258 7.0677e-05)
(0.076819 0.00220676 6.99057e-05)
(0.0768466 0.00212133 6.89299e-05)
(0.07689 0.00203647 6.78149e-05)
(0.0769495 0.00195238 6.66277e-05)
(0.077025 0.00186921 6.54052e-05)
(0.0771161 0.00178705 6.414e-05)
(0.0772225 0.00170596 6.28212e-05)
(0.0773436 0.00162602 6.1449e-05)
(0.0774783 0.00154728 6.00661e-05)
(0.0776253 0.0014698 5.8726e-05)
(0.0777836 0.00139361 5.74752e-05)
(0.077952 0.00131873 5.62763e-05)
(0.0781296 0.00124518 5.50427e-05)
(0.0783156 0.00117295 5.36863e-05)
(0.0785087 0.00110214 5.21771e-05)
(0.0787075 0.00103297 5.05556e-05)
(0.0789105 0.00096564 4.88679e-05)
(0.0791161 0.000900309 4.71546e-05)
(0.0793224 0.000836955 4.5441e-05)
(0.0795275 0.000775528 4.3751e-05)
(0.0797296 0.000715996 4.21044e-05)
(0.0799281 0.000658391 4.04998e-05)
(0.0801227 0.000602769 3.89297e-05)
(0.0803128 0.000549182 3.7383e-05)
(0.0804976 0.000497691 3.58247e-05)
(0.0806757 0.000448355 3.42073e-05)
(0.0808459 0.000401233 3.24838e-05)
(0.0810073 0.00035634 3.06358e-05)
(0.0811593 0.000313662 2.86649e-05)
(0.0813015 0.000273202 2.65793e-05)
(0.0814326 0.000235374 2.45027e-05)
(0.0815509 0.000200971 2.26673e-05)
(0.0816546 0.000170712 2.13095e-05)
(0.0817427 0.000142412 2.04865e-05)
(0.0818146 0.000110727 2.00593e-05)
(0.08187 6.99805e-05 1.98749e-05)
(0.0819085 1.43086e-05 1.9775e-05)
(0.0819295 -6.23486e-05 1.95957e-05)
(0.00245216 -1.33181e-07 4.50491e-07)
(0.00714668 -1.02531e-06 8.31833e-07)
(0.0116317 -2.19226e-06 -1.27485e-07)
(0.0159442 -2.7888e-06 -2.7888e-06)
(0.0201044 -1.87578e-06 -7.20213e-06)
(0.0241446 1.49172e-06 -1.33038e-05)
(0.0280812 8.2641e-06 -2.09834e-05)
(0.0319249 1.94004e-05 -3.01707e-05)
(0.0356895 3.58763e-05 -4.08673e-05)
(0.0393816 5.87161e-05 -5.31183e-05)
(0.0430049 8.89655e-05 -6.69758e-05)
(0.04656 0.000127656 -8.24694e-05)
(0.050047 0.000175803 -9.95707e-05)
(0.0534659 0.00023437 -0.000118148)
(0.0568157 0.000304223 -0.000137991)
(0.0600932 0.000386007 -0.000158758)
(0.0632944 0.000480234 -0.000180055)
(0.0664139 0.000587019 -0.000201397)
(0.0694458 0.000706352 -0.000222273)
(0.0723849 0.000837869 -0.000242205)
(0.0752263 0.000981007 -0.000260728)
(0.0779651 0.00113498 -0.000277432)
(0.0805959 0.00129867 -0.000292013)
(0.0831137 0.00147086 -0.000304186)
(0.085516 0.0016503 -0.000313813)
(0.0878015 0.00183566 -0.000320832)
(0.0899691 0.00202558 -0.000325218)
(0.0920182 0.00221865 -0.000327059)
(0.0939482 0.00241344 -0.000326468)
(0.0957593 0.00260857 -0.000323587)
(0.0974531 0.00280278 -0.000318602)
(0.0990314 0.00299482 -0.000311707)
(0.100497 0.00318359 -0.000303105)
(0.101852 0.0033682 -0.000293004)
(0.103102 0.00354771 -0.000281619)
(0.104249 0.00372134 -0.000269137)
(0.105297 0.00388839 -0.000255717)
(0.106249 0.00404814 -0.000241526)
(0.107111 0.00420004 -0.000226726)
(0.107884 0.0043437 -0.000211477)
(0.108575 0.0044787 -0.000195944)
(0.109188 0.00460474 -0.000180256)
(0.109725 0.00472165 -0.000164502)
(0.110193 0.00482925 -0.000148771)
(0.110593 0.00492741 -0.000133154)
(0.110931 0.00501608 -0.000117744)
(0.111211 0.00509523 -0.000102637)
(0.111436 0.00516486 -8.79162e-05)
(0.111611 0.00522509 -7.36148e-05)
(0.111739 0.00527606 -5.97577e-05)
(0.111824 0.00531796 -4.6374e-05)
(0.11187 0.005351 -3.35193e-05)
(0.11188 0.00537545 -2.12611e-05)
(0.111858 0.00539158 -9.66569e-06)
(0.111807 0.00539971 1.25592e-06)
(0.11173 0.0054002 1.15439e-05)
(0.11163 0.00539342 2.1242e-05)
(0.111509 0.00537972 3.0402e-05)
(0.11137 0.00535934 3.90919e-05)
(0.111214 0.00533249 4.73839e-05)
(0.111043 0.00529941 5.5341e-05)
(0.110859 0.00526031 6.29572e-05)
(0.110665 0.00521537 7.01998e-05)
(0.110463 0.00516481 7.70349e-05)
(0.110254 0.00510887 8.34225e-05)
(0.110041 0.00504786 8.93164e-05)
(0.109824 0.00498211 9.46688e-05)
(0.109607 0.00491196 9.94556e-05)
(0.109389 0.00483772 0.000103727)
(0.109173 0.00475974 0.000107551)
(0.108959 0.00467836 0.000110993)
(0.108749 0.00459381 0.000114106)
(0.108544 0.00450625 0.000116933)
(0.108346 0.00441585 0.000119519)
(0.108155 0.00432276 0.000121904)
(0.107973 0.00422712 0.000124123)
(0.107802 0.00412902 0.000126208)
(0.107643 0.00402861 0.000128182)
(0.107497 0.00392601 0.000129999)
(0.107366 0.00382134 0.000131587)
(0.107251 0.00371473 0.000132874)
(0.107153 0.0036064 0.000133819)
(0.107071 0.00349666 0.00013442)
(0.107006 0.00338581 0.000134674)
(0.106958 0.00327416 0.000134574)
(0.106929 0.00316198 0.000134101)
(0.10692 0.00304954 0.000133234)
(0.106931 0.00293709 0.000131958)
(0.106965 0.00282489 0.00013033)
(0.10702 0.00271318 0.000128448)
(0.107098 0.0026022 0.000126414)
(0.107198 0.00249215 0.000124283)
(0.107319 0.00238317 0.000122043)
(0.107463 0.00227537 0.000119676)
(0.107626 0.00216889 0.000117183)
(0.107809 0.00206387 0.000114629)
(0.108009 0.00196045 0.0001121)
(0.108226 0.00185877 0.00010967)
(0.108456 0.0017589 0.000107291)
(0.1087 0.00166085 0.000104848)
(0.108955 0.00156466 0.00010222)
(0.10922 0.00147044 9.93651e-05)
(0.109493 0.0013784 9.63313e-05)
(0.109771 0.00128877 9.3175e-05)
(0.110053 0.0012017 8.99501e-05)
(0.110337 0.00111722 8.67019e-05)
(0.110618 0.00103531 8.3476e-05)
(0.110896 0.000955966 8.03096e-05)
(0.111169 0.000879261 7.71976e-05)
(0.111436 0.000805268 7.41226e-05)
(0.111698 0.000734071 7.1063e-05)
(0.111952 0.000665783 6.79705e-05)
(0.112197 0.000600529 6.47823e-05)
(0.112431 0.000538424 6.14373e-05)
(0.112652 0.000479398 5.79164e-05)
(0.112862 0.000423243 5.42305e-05)
(0.113057 0.000369779 5.04019e-05)
(0.113238 0.000319503 4.66462e-05)
(0.113401 0.000273548 4.3361e-05)
(0.113544 0.000232945 4.09505e-05)
(0.113666 0.000194738 3.95065e-05)
(0.113765 0.000151616 3.87791e-05)
(0.113842 9.58206e-05 3.84936e-05)
(0.113895 1.93315e-05 3.83653e-05)
(0.113925 -8.61369e-05 3.81001e-05)
(0.00305339 -2.61821e-07 1.21871e-06)
(0.00894511 -2.05356e-06 2.60446e-06)
(0.0146191 -4.73287e-06 1.72798e-06)
(0.0201044 -7.20213e-06 -1.87578e-06)
(0.0254149 -8.28308e-06 -8.28308e-06)
(0.0305844 -6.80781e-06 -1.74126e-05)
(0.0356288 -1.58106e-06 -2.91518e-05)
(0.0405592 8.62135e-06 -4.34382e-05)
(0.0453908 2.50554e-05 -6.02831e-05)
(0.0501312 4.90462e-05 -7.97582e-05)
(0.0547836 8.19385e-05 -0.000101925)
(0.0593483 0.000125032 -0.000126759)
(0.0638248 0.00017958 -0.000154149)
(0.0682128 0.000246731 -0.000183836)
(0.0725105 0.00032749 -0.000215441)
(0.0767137 0.000422561 -0.000248382)
(0.0808171 0.000532479 -0.000282009)
(0.0848138 0.000657302 -0.000315575)
(0.0886963 0.000796939 -0.0003483)
(0.0924581 0.000950899 -0.000379463)
(0.0960931 0.00111847 -0.00040836)
(0.099595 0.00129869 -0.000434384)
(0.102957 0.00149024 -0.000457102)
(0.106174 0.00169173 -0.00047611)
(0.109242 0.00190171 -0.000491215)
(0.11216 0.00211868 -0.000502321)
(0.114927 0.00234111 -0.000509394)
(0.117542 0.00256742 -0.000512573)
(0.120004 0.00279599 -0.000512035)
(0.122314 0.00302527 -0.000507994)
(0.124475 0.00325385 -0.000500721)
(0.126488 0.00348031 -0.000490497)
(0.128357 0.00370341 -0.000477623)
(0.130086 0.00392211 -0.000462419)
(0.13168 0.00413537 -0.000445212)
(0.133143 0.00434225 -0.000426283)
(0.13448 0.00454193 -0.000405868)
(0.135695 0.00473359 -0.000384214)
(0.136794 0.00491654 -0.000361565)
(0.137781 0.0050903 -0.000338168)
(0.138663 0.00525434 -0.000314274)
(0.139444 0.00540828 -0.00029008)
(0.140129 0.00555186 -0.000265715)
(0.140725 0.00568482 -0.000241308)
(0.141236 0.00580697 -0.000216996)
(0.141666 0.00591817 -0.000192925)
(0.142022 0.0060183 -0.000169248)
(0.142307 0.0061073 -0.000146099)
(0.142528 0.00618526 -0.000123539)
(0.142689 0.0062523 -0.000101618)
(0.142796 0.00630858 -8.03907e-05)
(0.142851 0.00635431 -5.99528e-05)
(0.142861 0.00638978 -4.04165e-05)
(0.142829 0.00641525 -2.18932e-05)
(0.14276 0.00643107 -4.4064e-06)
(0.142657 0.00643764 1.21011e-05)
(0.142524 0.00643539 2.76915e-05)
(0.142364 0.0064247 4.2439e-05)
(0.14218 0.00640584 5.64405e-05)
(0.141975 0.00637909 6.97991e-05)
(0.141751 0.00634474 8.26055e-05)
(0.14151 0.00630303 9.48573e-05)
(0.141255 0.00625419 0.000106516)
(0.14099 0.00619846 0.000117541)
(0.140717 0.00613616 0.000127874)
(0.140437 0.00606761 0.000137437)
(0.140154 0.0059932 0.00014615)
(0.139868 0.0059133 0.000153969)
(0.139582 0.00582829 0.000160976)
(0.139298 0.00573858 0.000167279)
(0.139016 0.00564458 0.000172985)
(0.13874 0.00554656 0.000178173)
(0.138469 0.00544468 0.000182906)
(0.138207 0.00533915 0.000187252)
(0.137955 0.00523015 0.000191268)
(0.137714 0.00511783 0.000195004)
(0.137486 0.00500238 0.00019851)
(0.137273 0.00488395 0.000201818)
(0.137078 0.0047627 0.000204861)
(0.136901 0.00463879 0.000207537)
(0.136745 0.00451237 0.000209739)
(0.136609 0.00438371 0.000211409)
(0.136495 0.00425317 0.000212536)
(0.136403 0.00412112 0.000213112)
(0.136332 0.00398793 0.000213128)
(0.136284 0.00385388 0.000212571)
(0.136261 0.00371924 0.000211428)
(0.136265 0.0035843 0.000209696)
(0.136297 0.00344932 0.000207449)
(0.136357 0.00331459 0.000204812)
(0.136445 0.00318038 0.000201911)
(0.136562 0.00304694 0.000198813)
(0.136706 0.00291446 0.000195501)
(0.136878 0.00278313 0.000191948)
(0.137076 0.00265315 0.000188154)
(0.137299 0.00252476 0.000184203)
(0.137544 0.00239821 0.000180204)
(0.13781 0.00227375 0.000176253)
(0.138094 0.00215152 0.000172309)
(0.138395 0.0020316 0.000168253)
(0.138711 0.00191407 0.00016396)
(0.139039 0.00179907 0.000159382)
(0.139377 0.00168678 0.000154566)
(0.139723 0.00157741 0.000149562)
(0.140073 0.00147111 0.000144428)
(0.140425 0.00136793 0.000139233)
(0.140775 0.0012679 0.000134048)
(0.14112 0.00117108 0.000128932)
(0.141459 0.00107754 0.000123871)
(0.141792 0.00098737 0.000118831)
(0.142117 0.000900668 0.000113774)
(0.142433 0.000817613 0.000108646)
(0.142738 0.000738419 0.000103381)
(0.14303 0.000663277 9.79183e-05)
(0.143306 0.000591998 9.22568e-05)
(0.143566 0.000524121 8.64409e-05)
(0.14381 0.000459213 8.05302e-05)
(0.144035 0.000397821 7.48392e-05)
(0.144239 0.000341414 6.99217e-05)
(0.144418 0.000291338 6.63399e-05)
(0.144571 0.000243928 6.42091e-05)
(0.144696 0.000190049 6.31562e-05)
(0.144793 0.000120005 6.27716e-05)
(0.14486 2.37732e-05 6.26317e-05)
(0.144897 -0.000109 6.22981e-05)
(0.0036341 -4.29317e-07 2.5862e-06)
(0.0106842 -3.41443e-06 5.88859e-06)
(0.0175136 -8.1627e-06 5.69706e-06)
(0.0241446 -1.33038e-05 1.49172e-06)
(0.0305844 -1.74126e-05 -6.80781e-06)
(0.0368665 -1.91e-05 -1.91e-05)
(0.0430056 -1.69319e-05 -3.52855e-05)
(0.0490114 -9.42677e-06 -5.53269e-05)
(0.0549 4.94157e-06 -7.92566e-05)
(0.0606786 2.7782e-05 -0.000107171)
(0.0663499 6.07183e-05 -0.000139126)
(0.0719132 0.000105297 -0.000175006)
(0.077367 0.000162983 -0.000214566)
(0.0827102 0.000235077 -0.000257365)
(0.0879404 0.000322697 -0.000302802)
(0.0930521 0.000426576 -0.00034999)
(0.0980389 0.000547249 -0.000397969)
(0.102892 0.000684703 -0.000445688)
(0.107603 0.000838755 -0.000492068)
(0.112164 0.00100879 -0.000536117)
(0.116568 0.00119397 -0.00057688)
(0.120808 0.00139319 -0.000613546)
(0.124876 0.00160499 -0.000645556)
(0.128766 0.00182783 -0.000672395)
(0.132473 0.00206013 -0.000693813)
(0.135998 0.00230031 -0.000709691)
(0.139338 0.00254671 -0.000719991)
(0.142495 0.00279766 -0.000724914)
(0.145466 0.00305144 -0.000724714)
(0.148253 0.00330641 -0.000719686)
(0.15086 0.00356107 -0.000710182)
(0.153288 0.00381391 -0.000696575)
(0.155542 0.0040636 -0.000679267)
(0.157627 0.00430903 -0.000658693)
(0.159549 0.00454904 -0.000635302)
(0.161314 0.00478264 -0.000609473)
(0.162926 0.00500889 -0.000581524)
(0.164392 0.00522687 -0.000551781)
(0.165717 0.00543583 -0.000520577)
(0.166909 0.00563517 -0.000488251)
(0.167972 0.00582428 -0.000455148)
(0.168915 0.00600269 -0.000421536)
(0.169742 0.00617005 -0.000387585)
(0.17046 0.00632603 -0.000353462)
(0.171076 0.00647033 -0.000319354)
(0.171594 0.00660272 -0.00028547)
(0.172022 0.00672299 -0.000252027)
(0.172365 0.00683099 -0.000219217)
(0.172629 0.00692675 -0.000187142)
(0.172821 0.00701037 -0.000155887)
(0.172945 0.00708195 -0.000125545)
(0.173008 0.00714169 -9.62587e-05)
(0.173015 0.00718983 -6.81938e-05)
(0.172971 0.00722664 -4.15134e-05)
(0.172881 0.00725246 -1.62593e-05)
(0.172749 0.00726769 7.63908e-06)
(0.172581 0.00727276 3.02587e-05)
(0.17238 0.00726808 5.16925e-05)
(0.172149 0.00725394 7.20637e-05)
(0.171892 0.00723067 9.15035e-05)
(0.171611 0.00719858 0.000110129)
(0.17131 0.00715795 0.000127943)
(0.170993 0.00710904 0.000144906)
(0.170662 0.00705215 0.000160977)
(0.17032 0.00698759 0.000176079)
(0.169971 0.00691575 0.000190098)
(0.169616 0.00683701 0.000202916)
(0.169259 0.00675177 0.00021447)
(0.1689 0.00666045 0.000224876)
(0.168543 0.00656349 0.000234283)
(0.168189 0.00646135 0.000242843)
(0.167841 0.0063543 0.000250667)
(0.1675 0.00624256 0.000257841)
(0.167169 0.00612634 0.000264452)
(0.166849 0.00600583 0.000270582)
(0.166542 0.00588126 0.000276291)
(0.166252 0.00575281 0.00028164)
(0.16598 0.00562071 0.000286672)
(0.165728 0.00548514 0.000291299)
(0.165499 0.00534629 0.000295387)
(0.165295 0.00520436 0.0002988)
(0.165115 0.00505966 0.000301461)
(0.164962 0.00491258 0.000303352)
(0.164834 0.00476354 0.000304457)
(0.164731 0.00461294 0.000304766)
(0.164657 0.00446105 0.000304281)
(0.164612 0.00430816 0.000303011)
(0.1646 0.00415453 0.000300968)
(0.16462 0.00400045 0.000298243)
(0.164675 0.00384623 0.000294971)
(0.164763 0.00369217 0.000291289)
(0.164886 0.00353857 0.000287269)
(0.165042 0.00338568 0.000282885)
(0.165231 0.00323377 0.000278102)
(0.165452 0.00308314 0.000272914)
(0.165703 0.00293412 0.000267416)
(0.165982 0.00278708 0.00026173)
(0.166286 0.00264238 0.000255966)
(0.166612 0.00250024 0.000250106)
(0.166959 0.00236085 0.000244052)
(0.167324 0.00222437 0.000237706)
(0.167704 0.00209097 0.00023103)
(0.168095 0.00196083 0.000224061)
(0.168496 0.0018341 0.000216838)
(0.168902 0.00171094 0.00020942)
(0.169311 0.00159142 0.000201897)
(0.169717 0.00147559 0.000194368)
(0.170119 0.00136351 0.000186912)
(0.170514 0.00125529 0.000179499)
(0.170902 0.00115101 0.000172072)
(0.171282 0.00105081 0.00016457)
(0.17165 0.000954896 0.000156941)
(0.172006 0.000863583 0.000149133)
(0.172346 0.000777125 0.000141101)
(0.172668 0.000695195 0.000132887)
(0.172972 0.000617044 0.000124602)
(0.173257 0.000541959 0.000116372)
(0.17352 0.000470532 0.000108609)
(0.173758 0.000404578 0.000101988)
(0.173968 0.000345778 9.71938e-05)
(0.174148 0.000289818 9.43468e-05)
(0.174295 0.000225851 9.29492e-05)
(0.17441 0.000142361 9.24562e-05)
(0.17449 2.74418e-05 9.23045e-05)
(0.174534 -0.000131204 9.19112e-05)
(0.00419807 -6.27609e-07 4.69839e-06)
(0.0123743 -5.05945e-06 1.11117e-05)
(0.0203297 -1.23928e-05 1.24758e-05)
(0.0280812 -2.09834e-05 8.2641e-06)
(0.0356288 -2.91518e-05 -1.58106e-06)
(0.0430056 -3.52855e-05 -1.69319e-05)
(0.0502236 -3.77111e-05 -3.77111e-05)
(0.0572905 -3.46948e-05 -6.39198e-05)
(0.0642221 -2.44507e-05 -9.56208e-05)
(0.0710247 -5.10155e-06 -0.00013293)
(0.0776997 2.52371e-05 -0.000175876)
(0.0842447 6.83371e-05 -0.000224211)
(0.0906572 0.000125852 -0.000277509)
(0.0969351 0.000199209 -0.000335089)
(0.103075 0.00028961 -0.000396066)
(0.10907 0.0003978 -0.000459199)
(0.114913 0.000524299 -0.000523165)
(0.120593 0.000669022 -0.000586582)
(0.126101 0.000831698 -0.000648042)
(0.131428 0.00101161 -0.000706275)
(0.136566 0.00120781 -0.000760068)
(0.141508 0.00141909 -0.000808405)
(0.146246 0.00164389 -0.000850615)
(0.150772 0.00188058 -0.000886084)
(0.155082 0.00212754 -0.000914517)
(0.159178 0.0023831 -0.000935781)
(0.163057 0.00264558 -0.000949841)
(0.16672 0.00291327 -0.00095697)
(0.170167 0.00318442 -0.000957505)
(0.173399 0.00345736 -0.000951824)
(0.176421 0.00373055 -0.000940364)
(0.179235 0.00400245 -0.000923582)
(0.181848 0.00427169 -0.000901982)
(0.184264 0.0045371 -0.000876116)
(0.186492 0.00479752 -0.000846551)
(0.188537 0.00505185 -0.000813764)
(0.190406 0.00529911 -0.000778151)
(0.192105 0.00553832 -0.00074012)
(0.193641 0.00576862 -0.000700091)
(0.195022 0.00598936 -0.000658494)
(0.196255 0.00619984 -0.000615773)
(0.197348 0.0063995 -0.000572265)
(0.198307 0.00658791 -0.000528176)
(0.199139 0.00676464 -0.000483715)
(0.199852 0.00692931 -0.000439115)
(0.200452 0.00708159 -0.000394652)
(0.200947 0.00722115 -0.000350616)
(0.201343 0.00734774 -0.000307268)
(0.201647 0.00746135 -0.000264756)
(0.201865 0.007562 -0.000223213)
(0.202006 0.00764974 -0.000182781)
(0.202074 0.00772472 -0.000143657)
(0.202075 0.00778713 -0.000106062)
(0.202017 0.0078372 -7.02159e-05)
(0.201905 0.00787521 -3.61845e-05)
(0.201743 0.00790157 -3.89029e-06)
(0.201537 0.00791667 2.67521e-05)
(0.201293 0.0079209 5.58473e-05)
(0.201013 0.00791458 8.3537e-05)
(0.200702 0.00789804 0.000109972)
(0.200363 0.00787162 0.000135289)
(0.2 0.00783562 0.000159499)
(0.199617 0.00779036 0.000182569)
(0.199218 0.00773615 0.000204461)
(0.198806 0.00767333 0.000225084)
(0.198385 0.00760229 0.00024429)
(0.197956 0.00752339 0.000261925)
(0.197522 0.00743705 0.000277908)
(0.197087 0.00734369 0.000292382)
(0.196653 0.00724377 0.000305539)
(0.196223 0.00713775 0.000317574)
(0.195799 0.00702593 0.000328626)
(0.195383 0.00690855 0.000338806)
(0.194978 0.00678583 0.000348228)
(0.194585 0.006658 0.00035699)
(0.194207 0.00652531 0.000365163)
(0.193848 0.006388 0.000372817)
(0.19351 0.00624632 0.000379996)