/*--------------------------------*- C++ -*----------------------------------*\
| =========                 |                                                 |
| \\      /  F ield         | OpenFOAM: The Open Source CFD Toolbox           |
|  \\    /   O peration     | Version:  4.x                                   |
|   \\  /    A nd           | Web:      www.OpenFOAM.org                      |
|    \\/     M anipulation  |                                                 |
\*---------------------------------------------------------------------------*/
FoamFile
{
    version     2.0;
    format      ascii;
    class       volVectorField;
    location    "98.07";
    object      U;
}
// * * * * * * * * * * * * * * * * * * * * * * * * * * * * * * * * * * * * * //

dimensions      [0 1 -1 0 0 0 0];

internalField   nonuniform List<vector> 
15625
(
(0.00042150182384540505 5.018716698000425e-11 5.0187166979999254e-11)
(0.0011552379175893612 9.455646378162665e-09 -7.715159428643423e-09)
(0.001822826827482304 1.0663302297043384e-07 -4.7819664332107344e-08)
(0.0024521616910092746 4.50490560236417e-07 -1.3318133555618637e-07)
(0.0030533875216978796 1.218710939952851e-06 -2.618211578345804e-07)
(0.0036341043661827946 2.5861992383848074e-06 -4.2931650476115313e-07)
(0.004198073574468708 4.698390366815036e-06 -6.276086837376978e-07)
(0.004747608521105247 7.682964287986619e-06 -8.515479496868673e-07)
(0.00528507896807638 1.1661410676545905e-05 -1.101427425324499e-06)
(0.0058117436119156365 1.6757313427149095e-05 -1.3783174269834744e-06)
(0.006328283571594595 2.310318472773622e-05 -1.684607202981905e-06)
(0.0068349238141912445 3.085002227318656e-05 -2.025658660638665e-06)
(0.007331789399339052 4.016178661265624e-05 -2.4050294428847053e-06)
(0.007818948485885891 5.121861864207139e-05 -2.8218072739110587e-06)
(0.0082963119822253 6.419556767837892e-05 -3.273146272962784e-06)
(0.008763472140041036 7.924876746615111e-05 -3.7532533181007118e-06)
(0.009219905383876318 9.651395438537488e-05 -4.25431348307201e-06)
(0.009664849256330021 0.00011605661373804749 -4.7633029944465366e-06)
(0.010097484740433628 0.00013791872992241405 -5.2659297553391565e-06)
(0.010517075148211055 0.0001620615900755654 -5.749262325788539e-06)
(0.01092291761705355 0.0001884019455189675 -6.2009017494388246e-06)
(0.011314280027143759 0.0002168044476348786 -6.60935945555407e-06)
(0.01169039311597471 0.00024705082444203115 -6.964887312573681e-06)
(0.01205051236713594 0.00027890565242794145 -7.258314413593667e-06)
(0.012394255545920918 0.00031210798091449595 -7.485879826433542e-06)
(0.012721419762755785 0.0003463792436895424 -7.646500455644198e-06)
(0.013031823098150748 0.0003814332690552686 -7.739950612595571e-06)
(0.013325343122124817 0.0004169805253578088 -7.768493399093821e-06)
(0.013601872467089682 0.0004527231583997446 -7.734957141414533e-06)
(0.013861430338871253 0.0004883796849917311 -7.643346452705064e-06)
(0.014104228435114588 0.0005236988509947577 -7.499406815735059e-06)
(0.014330510952444633 0.0005584263453103917 -7.309197837266566e-06)
(0.01454063106974864 0.00059234955907566 -7.078299634145757e-06)
(0.014735056695993572 0.0006253002312594616 -6.8117783828614235e-06)
(0.014914280935872454 0.0006571085835192544 -6.514820057994627e-06)
(0.015078804158020891 0.0006876276891672764 -6.1921953133283075e-06)
(0.015229135883061242 0.0007167308880588423 -5.84831656997755e-06)
(0.015365808188199673 0.0007442905629840132 -5.487713894039112e-06)
(0.015489386030289133 0.000770214907292171 -5.1146407147345514e-06)
(0.015600467383446589 0.0007944460501191702 -4.733097365327435e-06)
(0.015699674034195504 0.0008169268256932211 -4.347179412658393e-06)
(0.01578761062774209 0.0008376202036424865 -3.960251035339372e-06)
(0.01586485710028753 0.0008565133879543962 -3.574780584287053e-06)
(0.015932013879455635 0.0008735953223695495 -3.1932610749262322e-06)
(0.01598967578361703 0.0008888668130767806 -2.8180745801992093e-06)
(0.016038410026190084 0.0009023493553153933 -2.4513464419062045e-06)
(0.016078801256248446 0.0009140678014474453 -2.0952376738651417e-06)
(0.016111436698750693 0.0009240525020150338 -1.7515318138775358e-06)
(0.016136864106697128 0.000932347772224373 -1.420699435087291e-06)
(0.016155640594299477 0.0009390023867356901 -1.1029612221642941e-06)
(0.016168332727359618 0.0009440678024476307 -7.98612891771389e-07)
(0.016175450364877605 0.0009476006641371438 -5.084310984182922e-07)
(0.016177491141198645 0.0009496612484070216 -2.334059217360279e-07)
(0.016174967292405407 0.0009503124308755656 2.5497120195564243e-08)
(0.016168334142628846 0.0009496201422927029 2.6828024884563483e-07)
(0.016157996412043577 0.0009476534021604962 4.958362706109943e-07)
(0.016144371229139965 0.0009444839698006651 7.091268666738571e-07)
(0.01612783353729599 0.000940174648448514 9.095289954177053e-07)
(0.016108649927420556 0.0009347656880847299 1.0992720087908405e-06)
(0.016087081412959288 0.0009282958911640541 1.2807673402751046e-06)
(0.016063401404980016 0.0009208040436538156 1.4560690897543202e-06)
(0.016037909521486267 0.0009123203328754054 1.6246362424668685e-06)
(0.016010922237222874 0.0009028724831272874 1.7849169574513064e-06)
(0.015982765120480663 0.0008924901418515859 1.935324386103425e-06)
(0.015953722392995716 0.0008812200046196276 2.0746156455976778e-06)
(0.015924034016495937 0.0008691267966073018 2.201914447343782e-06)
(0.01589394586238411 0.0008562784532683288 2.316337695874642e-06)
(0.015863693474345936 0.0008427413697688267 2.417501574465017e-06)
(0.015833464490686015 0.0008285722176988358 2.5065742850782003e-06)
(0.015803442558548934 0.0008138275485753636 2.5850567899847227e-06)
(0.015773815717001375 0.000798564456736344 2.654486505823046e-06)
(0.015744760030766806 0.0007828259488915846 2.7162655519892348e-06)
(0.01571644658499147 0.0007666470855063597 2.7717338834794984e-06)
(0.01568905196923782 0.0007500639903650811 2.8222747720975448e-06)
(0.015662766037457036 0.000733102429754612 2.86906527280591e-06)
(0.01563779774970065 0.0007157690365333631 2.912885475783591e-06)
(0.015614363988239788 0.0006980688020418138 2.954500044043152e-06)
(0.015592680196259144 0.0006800098004423731 2.9943667866237073e-06)
(0.015572922612530168 0.0006616160448934783 3.0311075966292423e-06)
(0.01555525694810016 0.0006429178331887729 3.062659405496663e-06)
(0.015539851018588265 0.0006239467885586381 3.0869400841093475e-06)
(0.01552681153204163 0.0006047404491338979 3.102986038300119e-06)
(0.015516180568202075 0.0005853425577534444 3.1110158922765063e-06)
(0.015507997788750163 0.0005657986181069348 3.111312486065054e-06)
(0.015502331818911563 0.000546160571620354 3.103693053142132e-06)
(0.01549933657655923 0.0005264964390386624 3.0865641755718764e-06)
(0.015499185637504154 0.000506879166298161 3.058023822856227e-06)
(0.01550204897510893 0.00048738195630572065 3.0165142425480545e-06)
(0.015508021193074917 0.00046805983523081593 2.964236019290369e-06)
(0.015517155074489123 0.0004489583133787419 2.905557696649354e-06)
(0.015529502481756954 0.00043012387758360537 2.844971333878675e-06)
(0.015545061108892559 0.0004115875849339585 2.7848573496501846e-06)
(0.015563750206045099 0.0003933576094539949 2.7244847163585083e-06)
(0.015585479394851953 0.0003754404897683835 2.662857974711716e-06)
(0.015610128704750327 0.0003578384306312049 2.599751276356917e-06)
(0.01563748084095961 0.0003405375451503436 2.5378403498539018e-06)
(0.01566728930778523 0.000323519719483715 2.48054995435156e-06)
(0.015699304958194465 0.0003067673723541171 2.4307930994469934e-06)
(0.01573333253056288 0.0002902743670511574 2.3855693541508063e-06)
(0.015769204639186966 0.00027404102810558675 2.338422400304931e-06)
(0.01580674646241468 0.0002580687206834908 2.2827940522707626e-06)
(0.015845730099550905 0.0002423919599389679 2.216687078068663e-06)
(0.01588586461007181 0.00022708540000746657 2.1436665679254774e-06)
(0.01592684558791277 0.0002122281874752666 2.0677388746347435e-06)
(0.01596834388887526 0.00019786810196095267 1.992167432059397e-06)
(0.016009986247340513 0.0001839756387212186 1.9182816059142924e-06)
(0.016051382025880852 0.000170508969889715 1.847166079019687e-06)
(0.016092179428732742 0.00015743256106613 1.7796698610099712e-06)
(0.01613224487545058 0.00014474435459435424 1.7154691850041124e-06)
(0.016171504036231448 0.00013245169444481302 1.65389651063178e-06)
(0.01620986714988868 0.00012056196270718227 1.5940762826201372e-06)
(0.0162471392591114 0.0001090821650357778 1.5336741169691297e-06)
(0.01628307124956519 9.801916834235081e-05 1.4696082058220568e-06)
(0.01631741232316664 8.738205372964729e-05 1.3988325792331574e-06)
(0.016349987356218707 7.720727410435283e-05 1.3200252252002763e-06)
(0.01638067365653964 6.755115043461708e-05 1.2330823553330408e-06)
(0.01640934078180031 5.847423169379516e-05 1.1382302984350263e-06)
(0.01643575089904741 5.007986536027802e-05 1.0415916675855614e-06)
(0.016459565076582347 4.2511722267151415e-05 9.548237890911013e-07)
(0.01648043578798561 3.589600811723725e-05 8.898027018480677e-07)
(0.016498140654287896 2.9772456632621203e-05 8.495690480353988e-07)
(0.01651259440542362 2.3041399983037514e-05 8.275082753735312e-07)
(0.016523716846436103 1.453620486903855e-05 8.163099839523439e-07)
(0.016531426225135613 3.051058269944964e-06 8.084106149281995e-07)
(0.016535639203936504 -1.2659949949569533e-05 7.95987467074972e-07)
(0.0011552379175893612 -7.715159428643418e-09 9.455646378162637e-09)
(0.0032876405503231717 -4.2939598742204934e-08 -4.293959874220488e-08)
(0.005268524637309913 1.0334512586460721e-07 -3.550870763528995e-07)
(0.007146683326884781 8.318330183212898e-07 -1.0253132792493908e-06)
(0.008945113106761085 2.604459472967441e-06 -2.0535562844505736e-06)
(0.010684203784527887 5.88858591418499e-06 -3.4144275784412713e-06)
(0.012374253799816565 1.1111713554321217e-05 -5.059448107586512e-06)
(0.014021737097761337 1.8676323090617928e-05 -6.956732289059961e-06)
(0.015633506456295427 2.897756579134813e-05 -9.106352804384147e-06)
(0.017213192027274317 4.242193091070598e-05 -1.1517090452565212e-05)
(0.01876274039177348 5.943374649876976e-05 -1.4205453847018693e-05)
(0.02028276555271933 8.046381077354599e-05 -1.720121975047943e-05)
(0.0217735935067588 0.0001059813683198061 -2.0520758229063188e-05)
(0.023235392022629992 0.00013647420142146025 -2.4150157385852883e-05)
(0.02466786057090053 0.0001724035544570057 -2.8059294889237968e-05)
(0.026069748003440908 0.00021415888056292804 -3.21918535408064e-05)
(0.02743945696803739 0.00026207026468407337 -3.647693680202441e-05)
(0.02877467741782065 0.000316274597977712 -4.0809159206358487e-05)
(0.030072930824675326 0.00037684519036777753 -4.507430006521877e-05)
(0.031331993089726166 0.00044365115807568274 -4.916713903302581e-05)
(0.03254974536848273 0.0005164483228786886 -5.298572066126206e-05)
(0.0337239842295015 0.0005948603533107222 -5.643727795087954e-05)
(0.03485240019951975 0.0006783013531022195 -5.944616711482728e-05)
(0.035932759081355785 0.0007661416595961326 -6.194131585280925e-05)
(0.03696391811480369 0.0008576919353813173 -6.389156075974428e-05)
(0.037945274973848316 0.0009522201973712226 -6.528544547976952e-05)
(0.038876291053758144 0.001048972030236748 -6.611907100700978e-05)
(0.039756608099022685 0.0011471770375345032 -6.6410697550522e-05)
(0.040585913629192984 0.001246041274402247 -6.618352524855322e-05)
(0.04136427368377161 0.001344811348741526 -6.54695478508066e-05)
(0.04209232976707329 0.0014428097453181078 -6.431372822125129e-05)
(0.042770820897833975 0.001539349909497866 -6.276351554025118e-05)
(0.043400812772952976 0.0016338510478254124 -6.086435688450182e-05)
(0.04398371498828764 0.0017258448848122153 -5.865952651824089e-05)
(0.044521012769695785 0.0018148583773285258 -5.619338429955064e-05)
(0.045014210836310874 0.001900482514949334 -5.35059870197198e-05)
(0.04546483928770757 0.001982365077247262 -5.063364231569903e-05)
(0.04587449588771535 0.0020601507482065407 -4.761361730841868e-05)
(0.046244877452035746 0.002133576106908619 -4.448122421267419e-05)
(0.04657778024580921 0.0022024647556405158 -4.12699997530834e-05)
(0.04687507196229976 0.002266641412985544 -3.801428944829373e-05)
(0.04713856600739866 0.0023259862138887777 -3.474214482763888e-05)
(0.047369998233149725 0.002380446099648918 -3.147391311872315e-05)
(0.04757116566201942 0.0024299721839469587 -2.8230132721402952e-05)
(0.04774385024982075 0.002474545398926236 -2.5030724137376018e-05)
(0.04788975434686717 0.0025141991105413724 -2.189401216979191e-05)
(0.04801063295936888 0.0025489746737733885 -1.8838695801395045e-05)
(0.048108248335654705 0.0025789300965937314 -1.588041981376075e-05)
(0.04818424273332049 0.0026041684187448257 -1.302411693365608e-05)
(0.048240286154322805 0.0026248057544780525 -1.027271197326774e-05)
(0.048278077131167864 0.002640966133770321 -7.629890938424559e-06)
(0.04829914549706921 0.0026527946569151867 -5.104030982014008e-06)
(0.04830498500964221 0.002660449063602655 -2.70561182967092e-06)
(0.048297133274498937 0.002664094280105255 -4.448944391939331e-07)
(0.04827695743303598 0.00266390824687008 1.6775375791359122e-06)
(0.04824567306845724 0.0026600816338503883 3.670003418000668e-06)
(0.04820453303546402 0.002652812875752686 5.54147394690604e-06)
(0.04815466246763855 0.0026422763267349384 7.303532795369625e-06)
(0.04809685887370838 0.002628585405481732 8.973000785847038e-06)
(0.048031902622482185 0.0026118498152486766 1.0567919020469633e-05)
(0.04796061174099947 0.0025921802345975145 1.2103756536124815e-05)
(0.04788388616102032 0.00256966913619552 1.357715717352444e-05)
(0.04780267767364609 0.0025444045442293683 1.4977447372202667e-05)
(0.04771796532537806 0.002516479774246658 1.629368120562203e-05)
(0.04763060164741308 0.0024860249456475727 1.7516399005266368e-05)
(0.047541303763109305 0.002453209057190324 1.863772982119855e-05)
(0.0474508063112049 0.0024182091782473636 1.9649659532680684e-05)
(0.047359813341739006 0.0023812016028676407 2.0548492336771443e-05)
(0.04726888657644651 0.002342346876403951 2.13439827721828e-05)
(0.047178575996857014 0.002301807477619803 2.2048758556291483e-05)
(0.04708944492773698 0.00225974700778119 2.2675723730876145e-05)
(0.047002022793653474 0.0022162839541079366 2.3236324351376482e-05)
(0.04691682533269298 0.0021715110779245367 2.374128379914025e-05)
(0.046834384863491584 0.0021255240177843384 2.4201672797518182e-05)
(0.04675527095193006 0.00207839723266448 2.462705722310587e-05)
(0.046680105958524606 0.0020301654273405254 2.5024079629378357e-05)
(0.04660953541257378 0.001980860631795108 2.5399298661248116e-05)
(0.04654420234989108 0.0019305206532496241 2.5756790405132602e-05)
(0.046484643158487375 0.0018792091073393873 2.608571333574259e-05)
(0.04643136672718209 0.0018270004186498414 2.6369668978452452e-05)
(0.04638488805763823 0.001773972850688051 2.659208713956215e-05)
(0.04634552491997043 0.0017202321176990215 2.6744780067946632e-05)
(0.046313386513423135 0.0016659128055108489 2.6828420682309806e-05)
(0.0462885735540725 0.0016111553635104713 2.6844135493135885e-05)
(0.046271280951147555 0.0015561091391667272 2.6790350653772768e-05)
(0.0462619824432471 0.0015009404321078713 2.6657329520230817e-05)
(0.04626121542527215 0.0014458233616500107 2.6433542185501244e-05)
(0.046269505313275165 0.0013909337625535659 2.6109793478545266e-05)
(0.046287135587825656 0.0013364143716313142 2.570194404200396e-05)
(0.04631425527883568 0.0012823912273668965 2.524032770584727e-05)
(0.046351010402561864 0.0012289933397394846 2.4756143523109445e-05)
(0.04639739151891981 0.0011763129660986682 2.4266417162087478e-05)
(0.04645316416343826 0.001124387598086428 2.3767273812181222e-05)
(0.04651806603093528 0.0010732513633321013 2.325309743956479e-05)
(0.046591744405276594 0.001022930902060822 2.2723454772020242e-05)
(0.04667354783992455 0.0009734232887131651 2.2197349104277937e-05)
(0.046762735711019854 0.0009247183407353486 2.1698830726330707e-05)
(0.04685855904839024 0.0008768060240693168 2.1248500927616004e-05)
(0.046960427145762276 0.0008296835844644117 2.082681291078013e-05)
(0.04706783089338061 0.0007833522808803251 2.0390769388957675e-05)
(0.047180238780650814 0.0007378154901292387 1.989666667320163e-05)
(0.047296964960504055 0.0006931497489990824 1.9330439496729333e-05)
(0.04741714044327561 0.000649520192076069 1.8714174975044366e-05)
(0.047539856307219824 0.0006071018275706616 1.8072798458008115e-05)
(0.04766412659669687 0.0005660074041509704 1.7427252107665765e-05)
(0.047788826153148965 0.0005261956230241763 1.6787947790313437e-05)
(0.04791277654596586 0.0004876010176958212 1.616405861021072e-05)
(0.0480349186665063 0.0004501697803122279 1.5563068967394055e-05)
(0.04815486125927586 0.00041390927505816706 1.4983891022653806e-05)
(0.04827239482648201 0.00037884419223390076 1.4422956109844043e-05)
(0.04838726183557321 0.00034499972145012395 1.3875081250102976e-05)
(0.04849887252659513 0.00031240231712533 1.3323385856597122e-05)
(0.04860646653067228 0.00028107927093511863 1.2745029000026892e-05)
(0.04870927943627328 0.0002510603473892427 1.2117473278828899e-05)
(0.048806792519545006 0.0002224015342269729 1.1431476212021247e-05)
(0.04889865774757327 0.00019517796564821844 1.068719951038664e-05)
(0.048984503829416826 0.00016947701218138192 9.887446113181624e-06)
(0.04906361983985129 0.00014557796021116983 9.081767488048243e-06)
(0.04913497522533618 0.00012394041540728543 8.363599610199377e-06)
(0.04919751296432405 0.00010497487965833635 7.82809282859406e-06)
(0.04925056061596821 8.733566855647821e-05 7.499117732161312e-06)
(0.04929386705800886 6.776233674102418e-05 7.322653054781499e-06)
(0.04932719703318706 4.279500163418145e-05 7.239040507788307e-06)
(0.049350310788106415 8.857632057889563e-06 7.186554373550627e-06)
(0.049362963992830626 -3.7744671045918515e-05 7.1013526311366765e-06)
(0.0018228268274823039 -4.7819664332107344e-08 1.0663302297043388e-07)
(0.005268524637309911 -3.5508707635289914e-07 1.0334512586460711e-07)
(0.008523120452088247 -5.867440014527697e-07 -5.867440014527691e-07)
(0.011631740668743186 -1.274845021175765e-07 -2.1922604551935224e-06)
(0.014619114772783758 1.7279761983945338e-06 -4.732868146645541e-06)
(0.01751359208272259 5.6970582145846555e-06 -8.162695755370972e-06)
(0.020329728256027194 1.247582274608836e-05 -1.2392826429883624e-05)
(0.023076958301621032 2.2747533794882662e-05 -1.7364562707523476e-05)
(0.025765940451031692 3.7197111229484414e-05 -2.3077544690327496e-05)
(0.02840226851623207 5.6539040343965204e-05 -2.955555819840491e-05)
(0.030988868655977754 8.150908106538908e-05 -3.683383607877235e-05)
(0.033526552631253016 0.00011285392573147611 -4.495652082396549e-05)
(0.03601569157714184 0.00015132608212783176 -5.393528011801374e-05)
(0.03845643930310616 0.0001976717021721643 -6.371618879143902e-05)
(0.040848186142007706 0.00025257693205718785 -7.420316885413012e-05)
(0.04318876624030785 0.0003165858798239549 -8.52294869682222e-05)
(0.045475446526967396 0.0003901457976053878 -9.659611421317655e-05)
(0.04770433263903272 0.0004734051246043021 -0.00010803579819047916)
(0.049871256427925954 0.0005664151829017399 -0.00011926264153411519)
(0.0519724930650976 0.0006689345963195998 -0.00013001003271193018)
(0.05400450332213718 0.0007805586891113688 -0.00014001784883312029)
(0.055963619350916254 0.0009006964388068679 -0.00014905410037016395)
(0.05784601683891066 0.0010284627512031626 -0.00015693821504193767)
(0.059647999958808914 0.0011629109094854664 -0.00016350101907016285)
(0.061367695047746404 0.0013030237427335233 -0.0001686643383823076)
(0.06300413131874744 0.001447730001496238 -0.00017239484321299704)
(0.0645564447278186 0.0015959233074535253 -0.00017467944292012182)
(0.06602407105228925 0.0017464671230490907 -0.00017556475627851284)
(0.0674065230890781 0.00189818883414597 -0.00017511055672223837)
(0.06870394019997356 0.002049972562498152 -0.00017339659437026422)
(0.06991741366112447 0.0022008096937807405 -0.00017053193111078366)
(0.07104819725640074 0.002349677294178589 -0.00016663167929616994)
(0.07209808684561018 0.0024957021377812454 -0.00016181030651713044)
(0.07306944890475611 0.0026381703294435094 -0.00015618145953120264)
(0.0739647758493349 0.002776359901145468 -0.00014986174580631424)
(0.07478658281626478 0.002909643632352179 -0.00014295429182338557)
(0.07553741839434634 0.0030374782455476856 -0.00013555038879281903)
(0.07621994378422005 0.0031593149229752564 -0.00012774374839485863)
(0.07683698902014224 0.003274735941440876 -0.00011962479456794777)
(0.07739155345968723 0.0033834476290440984 -0.0001112810418633211)
(0.07788675551488747 0.003485156799575435 -0.00010280215042742876)
(0.07832561371738514 0.003579653575613513 -9.426023345933821e-05)
(0.07871100609989726 0.003666828685910504 -8.570595975052129e-05)
(0.07904591159049408 0.0037465781454907787 -7.719036803675093e-05)
(0.07933328881097564 0.0038188381885717053 -6.876432258071326e-05)
(0.07957597256120497 0.0038836165219687767 -6.0477113430663324e-05)
(0.07977688625028405 0.003940930841860227 -5.237932512689965e-05)
(0.07993896546791128 0.003990827311299981 -4.451378976467314e-05)
(0.08006494623135625 0.004033433454613612 -3.689591684180428e-05)
(0.08015761086746633 0.004068898452307031 -2.9536055780845895e-05)
(0.08021978932718554 0.004097383908548812 -2.2446834036856683e-05)
(0.08025403095003308 0.004119090926689596 -1.5654500112149518e-05)
(0.08026282518639709 0.004134242592862906 -9.191455555736389e-06)
(0.08024873476719417 0.004143072930672374 -3.0895400394479833e-06)
(0.08021404175591534 0.004145844529188961 2.647584029221079e-06)
(0.08016077879648716 0.0041428473860285865 8.042168000198871e-06)
(0.08009104100762353 0.004134383688657342 1.3118270157886625e-05)
(0.08000671168829471 0.004120720964009716 1.7905347164878935e-05)
(0.07990913006806354 0.004102038186959866 2.244343483461035e-05)
(0.07979960737677573 0.0040785094879016975 2.6775233946951682e-05)
(0.07967951674158057 0.004050311069133019 3.0937672167423215e-05)
(0.07955036069521056 0.00401759336992535 3.492497151619648e-05)
(0.07941372552041755 0.0039805010593782645 3.871480100340909e-05)
(0.07927124267617015 0.003939186888060241 4.228414931506247e-05)
(0.07912432688479651 0.003893850381939472 4.561013618351916e-05)
(0.07897416095692145 0.00384474042877358 4.8670046783590395e-05)
(0.07882195621145795 0.0037921175338324047 5.1440536886184106e-05)
(0.07866887706574467 0.003736245090224291 5.391030017769568e-05)
(0.0785158638518268 0.0036773752308529605 5.6105603834869576e-05)
(0.07836383997157109 0.003615765731160648 5.806070993211828e-05)
(0.07821375142630584 0.0035516755080347573 5.981043645406781e-05)
(0.07806648918909771 0.0034852850481124306 6.138366032939504e-05)
(0.07792292244162997 0.003416729747028381 6.280605541432772e-05)
(0.07778394821474528 0.003346149295318762 6.410412409991487e-05)
(0.07765051604859129 0.0032736613122290085 6.53015655328628e-05)
(0.07752364646434397 0.0031993408208379633 6.641647637220329e-05)
(0.0774043963579177 0.0031232613232947903 6.746696655269783e-05)
(0.07729382474752437 0.0030455016672350254 6.846476104687232e-05)
(0.07719285085830678 0.0029661566870795896 6.938301098289147e-05)
(0.07710236219127249 0.00288532933629455 7.018052604835918e-05)
(0.0770232558850875 0.002803128701506404 7.081564968946902e-05)
(0.07695605663143507 0.0027197198298496714 7.126689546541715e-05)
(0.07690089533029582 0.002635326681068835 7.153409956432015e-05)
(0.07685788495753637 0.0025501834783966896 7.161813946436881e-05)
(0.07682731681241806 0.0024645265688657105 7.15153619132304e-05)
(0.07681001406493797 0.0023785826791988787 7.120843810789693e-05)
(0.07680691963980399 0.0022925830264924198 7.067702697345295e-05)
(0.07681895303025393 0.0022067626315374848 6.990565364447893e-05)
(0.07684658424776579 0.0021213266997262593 6.892990496167141e-05)
(0.07689003292629688 0.002036466533138343 6.781491767197233e-05)
(0.07694951295311282 0.0019523783183977989 6.662768693042202e-05)
(0.07702500245460028 0.0018692116577693537 6.540516879765064e-05)
(0.07711613860257646 0.0017870462735337796 6.414000689435785e-05)
(0.07722251569364233 0.0017059585727918411 6.28211873841221e-05)
(0.07734357562108021 0.0016260208691230179 6.144900909090106e-05)
(0.07747825331615019 0.0015472848690473923 6.0066065634137614e-05)
(0.07762533347889913 0.0014697984263420903 5.87259705754865e-05)
(0.07778358266633194 0.0013936076435976995 5.7475224072812504e-05)
(0.07795198519460816 0.0013187322179767588 5.6276307164095504e-05)
(0.07812963435920252 0.0012451766724210802 5.504267687340429e-05)
(0.07831558507682128 0.0011729478797580769 5.368629494775315e-05)
(0.07850867122037924 0.0011021427675132122 5.2177062575642807e-05)
(0.07870746560094767 0.0010329673287269362 5.055557046952062e-05)
(0.07891047775098892 0.000965639697926826 4.886788931603344e-05)
(0.0791160843965415 0.0009003093131407566 4.715455838883938e-05)
(0.07932241873633751 0.0008369547668810791 4.544095936156268e-05)
(0.07952752373886525 0.0007755283777898631 4.3750996709800156e-05)
(0.0797296423080679 0.0007159959483034263 4.210443424893903e-05)
(0.07992813438854827 0.0006583914340485558 4.049983529197176e-05)
(0.08012266426800374 0.0006027685560157338 3.8929661402952405e-05)
(0.08031281400551885 0.0005491823834355581 3.738302038595432e-05)
(0.08049759208004931 0.0004976911686622724 3.582474164318411e-05)
(0.0806757128486788 0.00044835533278020264 3.420728190273813e-05)
(0.08084588615245737 0.0004012331205580881 3.2483786857465815e-05)
(0.08100726784949792 0.0003563402058855382 3.063579272732257e-05)
(0.08115932457865427 0.0003136617706060178 2.866493080163009e-05)
(0.08130148472892583 0.0002732023128052392 2.6579331103688474e-05)
(0.0814325823942791 0.00023537391275382178 2.45027160944505e-05)
(0.08155089258524106 0.00020097111398136285 2.266732171189429e-05)
(0.0816546447642632 0.00017071168417660118 2.1309532814280335e-05)
(0.08174270482179864 0.000142412353317029 2.0486452273388008e-05)
(0.08181463592129702 0.00011072676946295375 2.005927732702186e-05)
(0.08187002679572215 6.998047545940633e-05 1.987492819395292e-05)
(0.08190845799986396 1.4308597249020023e-05 1.9775018619133175e-05)
(0.08192950176000732 -6.234861363397862e-05 1.9595730416799514e-05)
(0.002452161691009275 -1.3318133555618635e-07 4.5049056023641666e-07)
(0.00714668332688478 -1.0253132792493916e-06 8.318330183212892e-07)
(0.01163174066874319 -2.1922604551935207e-06 -1.2748450211757625e-07)
(0.015944156264049665 -2.7888040339344544e-06 -2.7888040339344544e-06)
(0.02010437414869308 -1.87577843134536e-06 -7.202131196519804e-06)
(0.024144587620014157 1.4917203392379536e-06 -1.330380635984886e-05)
(0.02808115138706191 8.264098388551534e-06 -2.0983399425291984e-05)
(0.03192494777987152 1.9400443298860192e-05 -3.0170744820912497e-05)
(0.03568946942836433 3.587634108397862e-05 -4.086726253469517e-05)
(0.039381643389822286 5.871609969521167e-05 -5.311826735928129e-05)
(0.043004911514524596 8.896547852006479e-05 -6.697584114980321e-05)
(0.04655996847708936 0.00012765625876244707 -8.246939768408714e-05)
(0.050046977854110296 0.00017580257259966605 -9.957066159762965e-05)
(0.053465905491826615 0.00023436969678845463 -0.00011814775402620288)
(0.05681569067750831 0.0003042229889973245 -0.00013799113532547632)
(0.0600931642443622 0.0003860072143345614 -0.00015875802594255434)
(0.06329438987231213 0.0004802336067530375 -0.00018005511561515163)
(0.06641387586055286 0.0005870185471213879 -0.00020139746877584033)
(0.06944576809322595 0.0007063520145534819 -0.00022227323891495945)
(0.07238488846201988 0.0008378692964053524 -0.00024220513050784344)
(0.07522634902858567 0.0009810066405126425 -0.00026072759347125916)
(0.07796510003118275 0.001134981142715381 -0.0002774321228969368)
(0.08059590071742809 0.0012986661565450558 -0.00029201322604991916)
(0.08311369530448452 0.0014708621992014937 -0.000304185616408433)
(0.08551597335320035 0.001650302671070339 -0.00031381291028752283)
(0.08780148757821055 0.00183566400569812 -0.00032083200780525704)
(0.08996913937247324 0.002025580638399808 -0.0003252180130463863)
(0.09201824032258478 0.0022186538183598245 -0.0003270590396698655)
(0.09394821033215553 0.0024134410060866803 -0.00032646791356910187)
(0.09575932006583264 0.0026085665857396756 -0.0003235870031297874)
(0.09745313066790885 0.0028027825416246824 -0.0003186015226803487)
(0.09903142796695796 0.002994822236887596 -0.00031170674955999055)
(0.1004967522544346 0.0031835948064060514 -0.00030310466269432656)
(0.10185243795699715 0.0033681965301147494 -0.00029300408441634244)
(0.1031019950480113 0.003547712398089518 -0.00028161947320110557)
(0.104248945011104 0.003721341931486443 -0.00026913690455872334)
(0.10529683769952651 0.0038883859606322494 -0.0002557174118065262)
(0.10624937937278708 0.004048137148406288 -0.0002415263238304363)
(0.1071105138483373 0.0042000435971055175 -0.00022672618444642418)
(0.1078844230799378 0.004343700370798891 -0.00021147728514375776)
(0.10857545468772706 0.004478701563120619 -0.00019594390864390327)
(0.10918780360767052 0.0046047444394818745 -0.0001802561316271614)
(0.10972545287159736 0.004721651104406333 -0.00016450228610951687)
(0.11019252445928687 0.004829248833989884 -0.0001487711459355708)
(0.11059311899041367 0.004927409191806009 -0.0001331539046582861)
(0.11093117742824742 0.005016083603194486 -0.0001177438019259897)
(0.11121076532793048 0.005095233276777921 -0.00010263705870805308)
(0.11143596730574859 0.005164859810666541 -8.791620481267007e-05)
(0.11161059672732268 0.0052250855321421 -7.361483295337183e-05)
(0.11173853293768873 0.005276062657397789 -5.975767944170019e-05)
(0.11182372108823345 0.005317959541182592 -4.6374019084687986e-05)
(0.11186971068720433 0.0053510037849805285 -3.351933903812154e-05)
(0.11187996585582376 0.005375454194820342 -2.1261076775262433e-05)
(0.11185805346044708 0.005391583311656409 -9.665693065248619e-06)
(0.11180716244079265 0.005399709864078522 1.2559169606262157e-06)
(0.11173014633463221 0.005400196463399496 1.154394566838786e-05)
(0.11162994697134689 0.005393421473245341 2.1241999158383474e-05)
(0.1115092159208357 0.005379723082151606 3.0402003853712174e-05)
(0.1113698562357227 0.005359335384347252 3.909189814614e-05)