/*--------------------------------*- C++ -*----------------------------------*\
| =========                 |                                                 |
| \\      /  F ield         | OpenFOAM: The Open Source CFD Toolbox           |
|  \\    /   O peration     | Version:  4.x                                   |
|   \\  /    A nd           | Web:      www.OpenFOAM.org                      |
|    \\/     M anipulation  |                                                 |
\*---------------------------------------------------------------------------*/
FoamFile
{
    version     2.0;
    format      ascii;
    class       volVectorField;
    location    "98.07";
    object      U;
}
// * * * * * * * * * * * * * * * * * * * * * * * * * * * * * * * * * * * * * //

dimensions      [0 1 -1 0 0 0 0];

internalField   nonuniform List<vector> 
15625
(
(0.00092785 -1.3392e-15 -1.33929e-15)
(0.00237421 -2.08269e-15 -6.92659e-16)
(0.00369335 -1.01571e-15 -2.13243e-16)
(0.00493789 -5.27603e-16 -9.12549e-17)
(0.00612549 -3.28406e-16 -4.7787e-17)
(0.00726014 -2.23774e-16 -2.45028e-17)
(0.00834083 -1.62545e-16 -1.26339e-17)
(0.00936582 -1.25814e-16 -6.98174e-18)
(0.0103345 -1.02599e-16 -4.15199e-18)
(0.0112477 -8.6865e-17 -2.65205e-18)
(0.0121077 -7.54388e-17 -1.77792e-18)
(0.0129175 -6.67348e-17 -1.36449e-18)
(0.0136807 -5.98303e-17 -1.06843e-18)
(0.0144011 -5.41677e-17 -8.99954e-19)
(0.0150822 -4.94448e-17 -6.68786e-19)
(0.0157273 -4.54161e-17 -6.89985e-19)
(0.0163397 -4.20399e-17 -5.8828e-19)
(0.0169221 -3.91935e-17 -5.83819e-19)
(0.017477 -3.65684e-17 -5.10724e-19)
(0.0180068 -3.42948e-17 -4.84753e-19)
(0.0185134 -3.24581e-17 -4.30628e-19)
(0.0189987 -3.08061e-17 -3.49108e-19)
(0.0194642 -2.92103e-17 -2.52376e-19)
(0.0199113 -2.77688e-17 -2.13713e-19)
(0.0203414 -2.64128e-17 -2.40483e-19)
(0.0207557 -2.51468e-17 -1.39631e-19)
(0.0211551 -2.40261e-17 -9.88449e-20)
(0.0215405 -2.29841e-17 -8.31282e-20)
(0.0219129 -2.19538e-17 -1.59823e-19)
(0.022273 -2.10782e-17 -1.48844e-19)
(0.0226216 -2.04594e-17 -1.99812e-19)
(0.0229592 -1.98934e-17 -1.04319e-19)
(0.0232864 -1.93929e-17 -6.63591e-20)
(0.0236038 -1.89769e-17 -5.73928e-20)
(0.0239119 -1.84419e-17 -2.38043e-19)
(0.0242112 -1.78468e-17 -2.01871e-19)
(0.024502 -1.74278e-17 -1.80309e-19)
(0.0247848 -1.6944e-17 -2.47039e-19)
(0.02506 -1.63337e-17 -2.55543e-19)
(0.0253278 -1.59535e-17 -1.78161e-19)
(0.0255885 -1.55476e-17 -1.65861e-19)
(0.0258426 -1.49102e-17 -7.41274e-20)
(0.0260902 -1.43632e-17 2.39176e-20)
(0.0263316 -1.40883e-17 6.78603e-20)
(0.0265671 -1.37881e-17 -3.79784e-20)
(0.0267969 -1.34154e-17 -1.06824e-19)
(0.0270211 -1.32231e-17 -1.37406e-20)
(0.02724 -1.3163e-17 2.50023e-20)
(0.0274538 -1.31521e-17 6.34887e-20)
(0.0276627 -1.29716e-17 2.92323e-21)
(0.0278667 -1.2536e-17 2.60758e-20)
(0.0280662 -1.22591e-17 -9.62557e-20)
(0.0282611 -1.21909e-17 -1.29973e-19)
(0.0284517 -1.21407e-17 -3.33111e-20)
(0.0286381 -1.19693e-17 -5.04445e-20)
(0.0288204 -1.16081e-17 -3.12624e-20)
(0.0289988 -1.12374e-17 -3.69221e-20)
(0.0291733 -1.09249e-17 -5.32412e-20)
(0.029344 -1.0731e-17 7.80902e-21)
(0.029511 -1.06558e-17 1.72111e-19)
(0.0296746 -1.06832e-17 3.87493e-20)
(0.0298346 -1.06188e-17 -2.16043e-20)
(0.0299912 -1.03497e-17 2.20113e-20)
(0.0301446 -1.00764e-17 5.49544e-20)
(0.0302947 -9.90604e-18 1.11336e-19)
(0.0304416 -9.76005e-18 1.71796e-20)
(0.0305855 -9.6424e-18 -2.4495e-20)
(0.0307263 -9.4809e-18 6.63769e-20)
(0.0308642 -9.25985e-18 1.25018e-19)
(0.0309991 -9.17296e-18 2.78723e-19)
(0.0311312 -9.34174e-18 2.36931e-19)
(0.0312605 -9.49234e-18 1.31069e-19)
(0.0313871 -9.48047e-18 1.45121e-19)
(0.0315109 -9.64243e-18 3.14621e-19)
(0.0316321 -9.80595e-18 3.00194e-19)
(0.0317507 -9.5114e-18 2.44592e-19)
(0.0318666 -8.9915e-18 2.96095e-19)
(0.0319801 -8.35634e-18 2.34865e-19)
(0.032091 -8.13528e-18 4.35945e-19)
(0.0321994 -8.5273e-18 1.36883e-19)
(0.0323054 -8.74502e-18 1.01409e-19)
(0.0324089 -8.78481e-18 1.5595e-19)
(0.0325101 -8.4839e-18 8.0301e-20)
(0.0326089 -8.10252e-18 -5.30008e-20)
(0.0327053 -8.0551e-18 -3.5619e-19)
(0.0327994 -7.94386e-18 -4.26467e-19)
(0.0328912 -7.3806e-18 -1.74728e-19)
(0.0329807 -6.72806e-18 -4.28476e-20)
(0.0330679 -6.30162e-18 -1.3519e-19)
(0.0331529 -6.03384e-18 6.40273e-21)
(0.0332356 -6.12403e-18 1.18352e-19)
(0.033316 -6.13295e-18 1.3778e-20)
(0.0333942 -5.94884e-18 9.50585e-21)
(0.0334702 -5.84617e-18 -3.91952e-20)
(0.033544 -5.74197e-18 2.23277e-19)
(0.0336156 -4.92211e-18 1.31304e-19)
(0.0336849 -3.90863e-18 1.47424e-19)
(0.033752 -3.7206e-18 4.63465e-19)
(0.033817 -3.8056e-18 4.29485e-19)
(0.0338797 -3.67317e-18 4.46366e-19)
(0.0339402 -3.53534e-18 4.68518e-19)
(0.0339985 -3.37161e-18 2.59514e-19)
(0.0340545 -2.98735e-18 2.74827e-19)
(0.0341083 -2.77605e-18 2.43899e-19)
(0.0341599 -2.85092e-18 2.57985e-19)
(0.0342093 -2.629e-18 3.36901e-20)
(0.0342563 -2.32936e-18 2.03959e-19)
(0.0343012 -2.25997e-18 3.16419e-19)
(0.0343437 -1.90727e-18 3.23079e-19)
(0.0343839 -1.69672e-18 1.81075e-19)
(0.0344218 -1.88192e-18 2.52101e-19)
(0.0344574 -1.67899e-18 7.78675e-20)
(0.0344906 -1.05744e-18 1.70471e-19)
(0.0345214 -1.00557e-18 4.91848e-19)
(0.0345499 -1.21839e-18 1.18713e-19)
(0.0345759 -1.41705e-18 1.77116e-19)
(0.0345995 -1.34175e-18 -1.58531e-20)
(0.0346205 -4.89272e-19 -1.83905e-19)
(0.0346391 -5.53438e-21 1.93062e-19)
(0.0346551 -2.22859e-20 1.70906e-19)
(0.0346686 -1.2948e-19 9.01526e-20)
(0.0346794 -3.39057e-19 1.38564e-19)
(0.0346876 -5.34756e-19 8.11709e-20)
(0.0346931 -1.30811e-19 -7.46289e-20)
(0.0346959 2.17609e-19 -6.6903e-20)
(0.00237421 -6.92341e-16 -2.08287e-15)
(0.00636019 -1.55783e-15 -1.55778e-15)
(0.0100659 -1.18326e-15 -7.99223e-16)
(0.0135608 -8.51988e-16 -4.45589e-16)
(0.0168726 -6.35205e-16 -2.5365e-16)
(0.020008 -4.86411e-16 -1.46392e-16)
(0.022967 -3.83132e-16 -8.74511e-17)
(0.0257497 -3.11706e-16 -5.48668e-17)
(0.0283596 -2.61408e-16 -3.63439e-17)
(0.0308041 -2.24906e-16 -2.55403e-17)
(0.0330931 -1.97277e-16 -1.89587e-17)
(0.0352381 -1.75699e-16 -1.47096e-17)
(0.0372512 -1.58551e-16 -1.16886e-17)
(0.0391441 -1.44407e-16 -9.71851e-18)
(0.0409278 -1.32376e-16 -8.14507e-18)
(0.0426123 -1.2227e-16 -6.72717e-18)
(0.0442068 -1.13963e-16 -5.53162e-18)
(0.0457194 -1.06845e-16 -4.89492e-18)
(0.0471574 -1.00364e-16 -4.44053e-18)
(0.048527 -9.47215e-17 -3.79506e-18)
(0.0498341 -8.99246e-17 -3.52271e-18)
(0.0510835 -8.57215e-17 -2.99033e-18)
(0.0522798 -8.1692e-17 -2.61329e-18)
(0.0534269 -7.79916e-17 -2.41012e-18)
(0.0545284 -7.46349e-17 -2.27142e-18)
(0.0555875 -7.14727e-17 -2.23399e-18)
(0.0566069 -6.87039e-17 -2.09524e-18)
(0.0575893 -6.60385e-17 -1.79024e-18)
(0.0585371 -6.33699e-17 -1.36898e-18)
(0.0594523 -6.11235e-17 -1.16326e-18)
(0.0603368 -5.93894e-17 -1.08017e-18)
(0.0611924 -5.77201e-17 -9.80975e-19)
(0.0620206 -5.61737e-17 -7.97308e-19)
(0.0628231 -5.48516e-17 -5.05592e-19)
(0.063601 -5.36227e-17 -7.73483e-19)
(0.0643557 -5.20042e-17 -8.50057e-19)
(0.0650883 -5.0452e-17 -5.55994e-19)
(0.0657999 -4.91195e-17 -5.56722e-19)
(0.0664914 -4.76568e-17 -5.68558e-19)
(0.0671637 -4.62937e-17 -9.13187e-19)
(0.0678178 -4.46828e-17 -7.95424e-19)
(0.0684543 -4.29498e-17 -1.06107e-18)
(0.0690741 -4.13864e-17 -8.14338e-19)
(0.0696778 -4.03299e-17 -3.48476e-19)
(0.0702661 -3.93672e-17 -3.19325e-19)
(0.0708395 -3.83348e-17 -2.78632e-19)
(0.0713986 -3.77028e-17 8.59348e-20)
(0.071944 -3.75486e-17 -1.13848e-19)
(0.0724762 -3.77364e-17 -1.67578e-20)
(0.0729956 -3.76905e-17 -7.32466e-20)
(0.0735027 -3.74051e-17 -4.84659e-20)
(0.0739978 -3.74297e-17 -2.58179e-19)
(0.0744815 -3.74546e-17 -5.80417e-19)
(0.0749539 -3.74363e-17 -2.82699e-19)
(0.0754156 -3.77468e-17 -1.19535e-19)
(0.0758668 -3.76426e-17 -3.17476e-19)
(0.0763078 -3.73859e-17 -2.77927e-19)
(0.076739 -3.75056e-17 -1.98456e-19)
(0.0771606 -3.7414e-17 -1.29309e-19)
(0.0775729 -3.76773e-17 -1.64214e-19)
(0.0779761 -3.83477e-17 2.07298e-19)
(0.0783704 -3.82265e-17 -1.07821e-19)
(0.0787562 -3.79188e-17 -1.78967e-20)
(0.0791335 -3.79593e-17 -8.01576e-20)
(0.0795027 -3.79336e-17 1.26996e-19)
(0.0798639 -3.82149e-17 5.21597e-20)
(0.0802172 -3.8776e-17 2.62671e-19)
(0.0805629 -3.89365e-17 3.01781e-20)
(0.0809011 -3.86185e-17 3.62363e-19)
(0.0812319 -3.83922e-17 -5.10036e-21)
(0.0815556 -3.84892e-17 4.65285e-19)
(0.0818723 -3.83218e-17 1.29209e-19)
(0.082182 -3.82199e-17 -2.17753e-19)
(0.0824849 -3.85673e-17 -2.1825e-19)
(0.0827811 -3.86912e-17 -1.58617e-19)
(0.0830708 -3.82075e-17 -3.83425e-19)
(0.083354 -3.7364e-17 -1.16124e-19)
(0.0836309 -3.60805e-17 -1.21042e-19)
(0.0839015 -3.56448e-17 2.9984e-19)
(0.0841659 -3.6585e-17 2.11882e-19)
(0.0844242 -3.70881e-17 5.55725e-20)
(0.0846765 -3.69798e-17 -4.62296e-20)
(0.0849228 -3.6369e-17 -6.39237e-19)
(0.0851632 -3.56889e-17 -3.87325e-19)
(0.0853978 -3.51527e-17 -8.58443e-19)
(0.0856267 -3.47359e-17 -8.47144e-19)
(0.0858498 -3.36731e-17 -9.16308e-19)
(0.0860672 -3.25062e-17 -4.01971e-19)
(0.086279 -3.19238e-17 -5.49279e-19)
(0.0864853 -3.15699e-17 9.97888e-20)
(0.086686 -3.26056e-17 1.65096e-19)
(0.0868811 -3.32014e-17 -3.6503e-19)
(0.0870708 -3.29301e-17 -3.31388e-19)
(0.087255 -3.25264e-17 -6.92144e-19)
(0.0874338 -3.17227e-17 -8.64819e-19)
(0.0876072 -2.9941e-17 -4.05035e-19)
(0.0877751 -2.79532e-17 -7.16093e-19)
(0.0879376 -2.68817e-17 -7.02559e-19)
(0.0880947 -2.63296e-17 -6.59582e-19)
(0.0882465 -2.55932e-17 -4.26051e-19)
(0.0883928 -2.49111e-17 -3.23976e-19)
(0.0885337 -2.42568e-17 -4.92622e-19)
(0.0886692 -2.32897e-17 -3.70428e-19)
(0.0887993 -2.22261e-17 -1.00734e-18)
(0.088924 -2.11566e-17 -8.85381e-19)
(0.0890431 -1.98293e-17 -5.40834e-19)
(0.0891568 -1.81562e-17 2.79316e-19)
(0.089265 -1.74695e-17 -4.41916e-19)
(0.0893677 -1.61137e-17 -8.78343e-19)
(0.0894648 -1.43871e-17 -5.99491e-19)
(0.0895563 -1.39863e-17 -6.98025e-19)
(0.0896421 -1.23833e-17 -7.87069e-19)
(0.0897222 -9.90762e-18 -8.52826e-19)
(0.0897966 -9.39706e-18 2.29407e-19)
(0.0898652 -9.39126e-18 -5.28256e-19)
(0.0899279 -9.30669e-18 -7.59291e-19)
(0.0899847 -8.56283e-18 -1.31168e-18)
(0.0900355 -5.98588e-18 -1.13686e-18)
(0.0900803 -4.14809e-18 -5.4758e-19)
(0.0901189 -3.65329e-18 -1.46665e-19)
(0.0901514 -3.16318e-18 1.63485e-19)
(0.0901775 -3.09175e-18 -2.25497e-19)
(0.0901973 -3.13176e-18 1.50656e-20)
(0.0902105 -1.41814e-18 -1.56578e-18)
(0.0902172 3.31372e-19 -5.09741e-19)
(0.00369335 -2.12872e-16 -1.01607e-15)
(0.0100659 -7.99229e-16 -1.18337e-15)
(0.0160935 -8.70611e-16 -8.70807e-16)
(0.0218162 -7.90614e-16 -5.99098e-16)
(0.0272455 -6.7606e-16 -3.98542e-16)
(0.0323741 -5.65966e-16 -2.62141e-16)
(0.0371935 -4.73692e-16 -1.74406e-16)
(0.0417037 -4.00741e-16 -1.19142e-16)
(0.0459142 -3.4429e-16 -8.4107e-17)
(0.0498419 -3.00498e-16 -6.16665e-17)
(0.0535074 -2.65814e-16 -4.68317e-17)
(0.056933 -2.37702e-16 -3.6981e-17)
(0.0601407 -2.14895e-16 -2.98442e-17)
(0.0631513 -1.9584e-16 -2.47903e-17)
(0.0659838 -1.79285e-16 -2.05764e-17)
(0.0686552 -1.65328e-16 -1.73175e-17)
(0.0711808 -1.53807e-16 -1.46879e-17)
(0.073574 -1.43959e-16 -1.30032e-17)
(0.0758467 -1.34886e-16 -1.12709e-17)
(0.0780094 -1.26985e-16 -9.63346e-18)
(0.0800712 -1.20243e-16 -8.61337e-18)
(0.0820404 -1.14025e-16 -7.81721e-18)
(0.0839242 -1.08369e-16 -6.88577e-18)
(0.085729 -1.03205e-16 -6.49018e-18)
(0.0874606 -9.83814e-17 -5.9644e-18)
(0.089124 -9.39973e-17 -5.53579e-18)
(0.090724 -8.99148e-17 -5.22195e-18)
(0.0922646 -8.59121e-17 -4.66984e-18)
(0.0937496 -8.23666e-17 -3.89436e-18)
(0.0951824 -7.94382e-17 -3.20408e-18)
(0.0965662 -7.69066e-17 -3.06039e-18)
(0.0979037 -7.44407e-17 -3.083e-18)
(0.0991975 -7.20368e-17 -2.96387e-18)
(0.10045 -7.02051e-17 -2.33402e-18)
(0.101663 -6.85638e-17 -2.2038e-18)
(0.10284 -6.61922e-17 -2.43874e-18)
(0.103981 -6.40152e-17 -1.80705e-18)
(0.105088 -6.23251e-17 -1.63591e-18)
(0.106163 -6.05298e-17 -1.75174e-18)
(0.107208 -5.86998e-17 -2.65782e-18)
(0.108224 -5.67337e-17 -2.30675e-18)
(0.109211 -5.44223e-17 -2.37115e-18)
(0.110172 -5.20391e-17 -2.34837e-18)
(0.111108 -5.08652e-17 -1.23806e-18)
(0.112019 -4.9773e-17 -8.82412e-19)
(0.112906 -4.83432e-17 -7.11965e-19)
(0.113771 -4.77186e-17 -5.87065e-19)
(0.114613 -4.74492e-17 -5.34723e-19)
(0.115435 -4.73745e-17 -4.06496e-19)
(0.116237 -4.71043e-17 -5.12235e-19)
(0.117019 -4.64738e-17 -8.23387e-19)
(0.117782 -4.61376e-17 -8.2621e-19)
(0.118526 -4.57118e-17 -1.17916e-18)
(0.119254 -4.51593e-17 -1.002e-18)
(0.119964 -4.51676e-17 -7.53251e-19)
(0.120657 -4.47817e-17 -8.68402e-19)
(0.121334 -4.4005e-17 -8.88372e-19)
(0.121996 -4.37526e-17 -6.12026e-19)
(0.122643 -4.35304e-17 -4.38018e-19)
(0.123275 -4.31181e-17 -5.79377e-19)
(0.123893 -4.35652e-17 3.64183e-19)
(0.124497 -4.36883e-17 -5.40994e-19)
(0.125087 -4.27533e-17 -6.85159e-19)
(0.125664 -4.22766e-17 -2.54435e-20)
(0.126228 -4.21783e-17 2.54085e-19)
(0.12678 -4.21342e-17 1.66626e-19)
(0.127319 -4.24909e-17 4.9182e-19)
(0.127846 -4.26186e-17 2.99936e-20)
(0.128362 -4.2065e-17 -1.64052e-19)
(0.128866 -4.15833e-17 -9.54554e-20)
(0.129359 -4.16857e-17 3.81669e-19)
(0.129841 -4.17059e-17 2.39644e-19)
(0.130312 -4.15019e-17 -2.53598e-19)
(0.130773 -4.164e-17 -6.68749e-19)
(0.131223 -4.15963e-17 -2.70066e-21)
(0.131663 -4.10295e-17 2.28957e-19)
(0.132093 -3.98684e-17 5.80866e-19)
(0.132513 -3.82107e-17 -1.08553e-19)
(0.132923 -3.75953e-17 3.858e-19)
(0.133324 -3.83616e-17 7.16417e-19)
(0.133715 -3.89214e-17 5.83913e-19)
(0.134097 -3.88907e-17 -3.06647e-19)
(0.13447 -3.79358e-17 -7.21686e-19)
(0.134833 -3.70041e-17 -7.27124e-19)
(0.135188 -3.63109e-17 -1.20278e-18)
(0.135534 -3.57232e-17 -1.05606e-18)
(0.135871 -3.43308e-17 -1.01255e-18)
(0.136199 -3.2877e-17 -6.34835e-19)
(0.136519 -3.19828e-17 -4.38052e-19)
(0.13683 -3.15215e-17 4.19458e-19)
(0.137133 -3.2655e-17 -1.5068e-19)
(0.137427 -3.29812e-17 -4.25152e-19)
(0.137713 -3.26831e-17 -7.33417e-19)
(0.13799 -3.21366e-17 -1.36634e-18)
(0.138259 -3.09533e-17 -1.4844e-18)
(0.13852 -2.91763e-17 -9.96593e-19)
(0.138773 -2.70911e-17 -2.054e-18)
(0.139017 -2.55856e-17 -1.7553e-18)
(0.139253 -2.48235e-17 -8.55032e-19)
(0.139481 -2.42168e-17 -4.39658e-19)
(0.139701 -2.36339e-17 -5.74151e-19)
(0.139913 -2.28812e-17 -3.97536e-19)
(0.140116 -2.22429e-17 -3.00886e-19)
(0.140312 -2.12326e-17 -1.2708e-18)
(0.140499 -1.97502e-17 -1.09714e-18)
(0.140678 -1.8377e-17 -4.92029e-19)
(0.140848 -1.71948e-17 -1.45059e-20)
(0.14101 -1.69245e-17 1.02706e-19)
(0.141164 -1.54048e-17 -1.87935e-19)
(0.14131 -1.37262e-17 -4.50267e-19)
(0.141447 -1.34006e-17 -9.05915e-19)
(0.141575 -1.22618e-17 -8.67092e-19)
(0.141695 -9.85829e-18 -1.58645e-18)
(0.141807 -9.06663e-18 -2.15515e-20)
(0.14191 -9.20734e-18 -4.09494e-19)
(0.142004 -9.04457e-18 -1.15935e-18)
(0.142089 -8.05729e-18 -1.67792e-18)
(0.142165 -5.2911e-18 -1.49468e-18)
(0.142232 -3.26634e-18 -5.43351e-19)
(0.142289 -2.8513e-18 1.18286e-18)
(0.142338 -2.86951e-18 6.3964e-19)
(0.142377 -2.88231e-18 3.22173e-19)
(0.142407 -3.31622e-18 -3.20192e-19)
(0.142427 -1.63871e-18 -2.56863e-18)
(0.142437 4.1873e-19 -9.23102e-19)
(0.00493789 -9.08966e-17 -5.28028e-16)
(0.0135608 -4.45717e-16 -8.5198e-16)
(0.0218162 -5.99145e-16 -7.90705e-16)
(0.0296745 -6.34203e-16 -6.34013e-16)
(0.0371058 -6.03123e-16 -4.73145e-16)
(0.0440799 -5.45504e-16 -3.42214e-16)
(0.050582 -4.83282e-16 -2.4617e-16)
(0.0566193 -4.25858e-16 -1.79121e-16)
(0.0622167 -3.76446e-16 -1.32926e-16)
(0.0674083 -3.35103e-16 -1.0101e-16)
(0.0722319 -3.00562e-16 -7.87477e-17)
(0.0767241 -2.71449e-16 -6.29845e-17)
(0.0809194 -2.4694e-16 -5.14649e-17)
(0.0848485 -2.25907e-16 -4.28259e-17)
(0.0885389 -2.07457e-16 -3.59264e-17)
(0.0920147 -1.91824e-16 -3.05794e-17)
(0.0952969 -1.78767e-16 -2.63334e-17)
(0.0984038 -1.67092e-16 -2.31177e-17)
(0.101352 -1.56305e-16 -2.01593e-17)
(0.104154 -1.47313e-16 -1.72716e-17)
(0.106824 -1.39574e-16 -1.55191e-17)
(0.109373 -1.32178e-16 -1.39981e-17)
(0.111808 -1.25444e-16 -1.26259e-17)
(0.11414 -1.19393e-16 -1.15437e-17)
(0.116376 -1.13629e-16 -1.05305e-17)
(0.118523 -1.08441e-16 -9.41021e-18)
(0.120586 -1.03636e-16 -8.32322e-18)
(0.122572 -9.87737e-17 -7.96552e-18)
(0.124484 -9.43183e-17 -7.70619e-18)
(0.126329 -9.09816e-17 -6.68827e-18)
(0.128108 -8.83066e-17 -6.05043e-18)
(0.129828 -8.53702e-17 -5.72574e-18)
(0.13149 -8.2053e-17 -5.4694e-18)
(0.133098 -7.93881e-17 -4.49154e-18)
(0.134655 -7.76018e-17 -3.54617e-18)
(0.136163 -7.47384e-17 -3.86069e-18)
(0.137625 -7.20562e-17 -3.30452e-18)
(0.139043 -7.04328e-17 -2.88566e-18)
(0.140419 -6.87924e-17 -3.16995e-18)
(0.141756 -6.63245e-17 -4.20987e-18)
(0.143054 -6.36241e-17 -3.86416e-18)
(0.144316 -6.13897e-17 -3.99487e-18)
(0.145543 -5.8464e-17 -3.84639e-18)
(0.146736 -5.67616e-17 -2.46745e-18)
(0.147897 -5.58858e-17 -1.68832e-18)
(0.149028 -5.46494e-17 -1.60539e-18)
(0.150129 -5.38666e-17 -1.61325e-18)
(0.151201 -5.32557e-17 -1.22791e-18)
(0.152246 -5.29173e-17 -1.13026e-18)
(0.153265 -5.26043e-17 -1.51688e-18)
(0.154258 -5.17109e-17 -1.67384e-18)
(0.155227 -5.11224e-17 -1.56522e-18)
(0.156171 -5.05127e-17 -1.95752e-18)
(0.157093 -4.95115e-17 -1.89303e-18)
(0.157993 -4.90528e-17 -1.31599e-18)
(0.158871 -4.84035e-17 -1.70639e-18)
(0.159728 -4.74394e-17 -1.39264e-18)
(0.160564 -4.68247e-17 -1.16226e-18)
(0.161382 -4.63512e-17 -7.51869e-19)
(0.16218 -4.5553e-17 -3.69068e-19)
(0.162959 -4.61209e-17 -7.35727e-20)
(0.163721 -4.63023e-17 -5.28063e-19)
(0.164465 -4.47109e-17 -1.06878e-18)
(0.165192 -4.395e-17 -5.32951e-19)
(0.165902 -4.3776e-17 1.06583e-19)
(0.166596 -4.34867e-17 4.8551e-19)
(0.167274 -4.38243e-17 3.41687e-19)
(0.167937 -4.39599e-17 2.61695e-20)
(0.168585 -4.30796e-17 -1.1988e-19)
(0.169217 -4.24691e-17 -3.75618e-19)
(0.169836 -4.26317e-17 -2.3364e-19)
(0.17044 -4.26519e-17 1.67436e-19)
(0.17103 -4.2447e-17 -2.48673e-19)
(0.171607 -4.20171e-17 -7.85128e-19)
(0.17217 -4.1418e-17 -2.57637e-20)
(0.172721 -4.08543e-17 5.52344e-19)
(0.173258 -4.02119e-17 6.47931e-19)
(0.173783 -3.85104e-17 -1.16171e-18)
(0.174295 -3.71065e-17 -1.23933e-18)
(0.174796 -3.77553e-17 -1.48594e-19)
(0.175284 -3.86382e-17 -1.79086e-19)
(0.17576 -3.83393e-17 -8.88592e-19)
(0.176224 -3.71022e-17 -1.04517e-18)
(0.176677 -3.6338e-17 -1.0325e-18)
(0.177119 -3.53592e-17 -1.41765e-18)
(0.177549 -3.42931e-17 -1.51887e-18)
(0.177969 -3.28115e-17 -1.02954e-18)
(0.178377 -3.15577e-17 -7.85518e-19)
(0.178774 -3.06829e-17 -2.08418e-19)
(0.17916 -3.04092e-17 1.1826e-19)
(0.179536 -3.13415e-17 -5.66805e-19)
(0.179901 -3.1467e-17 -4.57341e-19)
(0.180256 -3.12996e-17 -4.38366e-19)
(0.1806 -3.05243e-17 -1.43928e-18)
(0.180933 -2.91798e-17 -1.48838e-18)
(0.181257 -2.78791e-17 -1.94637e-18)
(0.18157 -2.57931e-17 -3.14577e-18)
(0.181872 -2.36705e-17 -2.50314e-18)
(0.182165 -2.28451e-17 -1.11342e-18)
(0.182447 -2.25439e-17 -3.52543e-19)
(0.182719 -2.17904e-17 -1.16105e-18)
(0.18298 -2.11089e-17 -7.3724e-19)
(0.183232 -2.08349e-17 -5.43328e-19)
(0.183473 -1.9813e-17 -1.35271e-18)
(0.183704 -1.82636e-17 -1.13994e-18)
(0.183925 -1.70439e-17 -4.26185e-19)
(0.184136 -1.59525e-17 -6.59423e-19)
(0.184336 -1.56631e-17 -4.69653e-19)
(0.184526 -1.47395e-17 9.88392e-19)
(0.184705 -1.34938e-17 1.16649e-19)
(0.184874 -1.30124e-17 -7.94965e-19)
(0.185033 -1.21522e-17 -1.17923e-18)
(0.185181 -9.70404e-18 -2.51548e-18)
(0.185318 -8.55741e-18 -1.22564e-18)
(0.185445 -9.02874e-18 -4.98437e-19)
(0.185561 -8.73272e-18 -7.16169e-19)
(0.185665 -7.40941e-18 -7.40525e-19)
(0.185759 -4.4617e-18 -9.81242e-19)
(0.185842 -2.32835e-18 1.1093e-19)
(0.185913 -2.38293e-18 1.82211e-18)
(0.185973 -2.81022e-18 1.28449e-18)
(0.186021 -2.80959e-18 5.45557e-19)
(0.186057 -3.44216e-18 -4.06559e-19)
(0.186082 -1.97916e-18 -2.15919e-18)
(0.186094 3.19228e-19 -5.55201e-19)
(0.00612549 -4.74456e-17 -3.2884e-16)
(0.0168726 -2.53845e-16 -6.34992e-16)
(0.0272455 -3.98725e-16 -6.75821e-16)
(0.0371058 -4.73553e-16 -6.02557e-16)
(0.0463409 -4.9093e-16 -4.90057e-16)
(0.054892 -4.74421e-16 -3.81211e-16)
(0.0627605 -4.42418e-16 -2.91829e-16)
(0.0699885 -4.05435e-16 -2.23636e-16)
(0.0766357 -3.6899e-16 -1.73137e-16)
(0.0827657 -3.3567e-16 -1.36039e-16)
(0.0884381 -3.0604e-16 -1.08815e-16)
(0.0937067 -2.7978e-16 -8.83593e-17)
(0.0986182 -2.56866e-16 -7.29545e-17)
(0.103213 -2.36597e-16 -6.09021e-17)
(0.107525 -2.18548e-16 -5.17304e-17)
(0.111585 -2.02998e-16 -4.43723e-17)
(0.115418 -1.89583e-16 -3.89237e-17)
(0.119046 -1.77494e-16 -3.41504e-17)
(0.122488 -1.66191e-16 -2.99151e-17)
(0.125761 -1.56819e-16 -2.62956e-17)
(0.128878 -1.4875e-16 -2.33921e-17)
(0.131854 -1.4078e-16 -2.10514e-17)
(0.134698 -1.33569e-16 -1.90804e-17)
(0.137421 -1.26969e-16 -1.66953e-17)
(0.140032 -1.207e-16 -1.52652e-17)
(0.142539 -1.14944e-16 -1.35905e-17)
(0.144948 -1.10145e-16 -1.15989e-17)
(0.147266 -1.05767e-16 -1.1311e-17)
(0.1495 -1.00785e-16 -1.11613e-17)
(0.151653 -9.6355e-17 -1.04236e-17)
(0.15373 -9.31458e-17 -9.40191e-18)
(0.155737 -9.0008e-17 -8.58423e-18)
(0.157677 -8.63572e-17 -7.87453e-18)
(0.159553 -8.31793e-17 -6.57056e-18)
(0.161369 -8.13195e-17 -6.04439e-18)
(0.163128 -7.86714e-17 -5.7742e-18)
(0.164833 -7.5658e-17 -5.06184e-18)
(0.166486 -7.37828e-17 -4.72421e-18)
(0.16809 -7.20721e-17 -4.88681e-18)
(0.169648 -6.93693e-17 -4.89906e-18)
(0.17116 -6.66553e-17 -5.03459e-18)
(0.172629 -6.42081e-17 -5.05751e-18)
(0.174058 -6.08499e-17 -4.56106e-18)
(0.175447 -5.89281e-17 -3.84774e-18)
(0.176798 -5.81744e-17 -2.94258e-18)
(0.178113 -5.71557e-17 -2.37561e-18)
(0.179393 -5.62066e-17 -2.51924e-18)
(0.18064 -5.5345e-17 -2.21539e-18)
(0.181854 -5.50853e-17 -1.99333e-18)
(0.183037 -5.45735e-17 -2.29238e-18)
(0.18419 -5.34559e-17 -2.19893e-18)
(0.185314 -5.28048e-17 -2.15577e-18)
(0.18641 -5.19803e-17 -2.96228e-18)
(0.187479 -5.04569e-17 -2.65689e-18)
(0.188521 -4.99499e-17 -2.32627e-18)
(0.189539 -4.92741e-17 -2.27527e-18)
(0.190531 -4.80317e-17 -2.01058e-18)
(0.1915 -4.73366e-17 -1.64012e-18)
(0.192446 -4.64923e-17 -9.83816e-19)
(0.193369 -4.58543e-17 -2.3497e-19)
(0.19427 -4.61924e-17 -4.29298e-19)
(0.195151 -4.63483e-17 -3.21668e-19)
(0.19601 -4.49666e-17 -1.54701e-18)
(0.196849 -4.35533e-17 -1.23096e-18)
(0.197669 -4.30105e-17 8.07324e-21)
(0.19847 -4.31086e-17 6.67472e-19)
(0.199252 -4.35199e-17 8.03854e-19)
(0.200016 -4.33363e-17 1.94041e-19)
(0.200762 -4.26933e-17 -2.44525e-19)
(0.20149 -4.21595e-17 -6.57546e-19)
(0.202202 -4.18267e-17 -7.63296e-19)
(0.202897 -4.16062e-17 -3.68346e-19)
(0.203576 -4.15601e-17 -2.44514e-19)
(0.204239 -4.09827e-17 3.32402e-19)
(0.204887 -4.00548e-17 -2.17663e-19)
(0.205519 -3.95905e-17 -4.72366e-19)
(0.206136 -3.95555e-17 -1.01954e-18)
(0.206738 -3.81362e-17 -2.00437e-18)
(0.207326 -3.58918e-17 -2.57916e-18)
(0.207899 -3.58968e-17 -9.41133e-19)
(0.208459 -3.69283e-17 -1.32232e-18)
(0.209004 -3.65513e-17 -1.93653e-18)
(0.209536 -3.51918e-17 -2.21436e-18)
(0.210055 -3.45492e-17 -1.8824e-18)
(0.21056 -3.37196e-17 -2.58392e-18)
(0.211052 -3.21831e-17 -2.42125e-18)
(0.211532 -3.07468e-17 -1.52092e-18)
(0.211998 -2.98429e-17 -7.76653e-19)
(0.212452 -2.90776e-17 -4.55563e-19)
(0.212893 -2.89395e-17 -4.3767e-19)
(0.213322 -2.94432e-17 -5.15796e-19)
(0.213739 -2.92417e-17 -4.04442e-19)
(0.214143 -2.93936e-17 2.54761e-19)
(0.214536 -2.87257e-17 -6.42326e-19)
(0.214916 -2.75351e-17 -1.35553e-18)
(0.215284 -2.67163e-17 -2.47095e-18)
(0.215641 -2.43875e-17 -3.53062e-18)
(0.215986 -2.18402e-17 -1.999e-18)
(0.216319 -2.10662e-17 -1.22528e-18)
(0.21664 -2.12788e-17 -1.45686e-18)
(0.216949 -2.05106e-17 -1.40988e-18)
(0.217247 -1.96157e-17 -5.62666e-19)
(0.217533 -1.95431e-17 -5.83658e-19)
(0.217807 -1.85891e-17 -7.23993e-19)
(0.21807 -1.71096e-17 -1.05699e-18)
(0.218321 -1.60953e-17 -1.0877e-18)
(0.21856 -1.52617e-17 -1.08199e-18)
(0.218788 -1.42371e-17 -1.57266e-18)
(0.219003 -1.36566e-17 1.16518e-18)
(0.219207 -1.3495e-17 2.19338e-19)
(0.219399 -1.2926e-17 -5.45948e-19)
(0.219579 -1.23264e-17 -1.56518e-18)
(0.219747 -9.9999e-18 -2.84158e-18)
(0.219903 -8.06159e-18 -2.71688e-18)
(0.220047 -8.06754e-18 -9.93904e-19)
(0.220178 -7.96122e-18 -2.63166e-19)
(0.220297 -6.7963e-18 -5.04611e-19)
(0.220403 -4.15285e-18 -4.61975e-19)
(0.220497 -2.14231e-18 4.96144e-19)
(0.220578 -2.08229e-18 1.62902e-18)
(0.220645 -2.82181e-18 1.70538e-18)
(0.2207 -3.01085e-18 3.20435e-19)
(0.220741 -3.38626e-18 -1.51505e-18)
(0.220769 -2.35203e-18 -2.98686e-18)
(0.220783 2.01409e-19 -7.79695e-19)
(0.00726014 -2.41813e-17 -2.24209e-16)
(0.020008 -1.46587e-16 -4.8609e-16)
(0.0323741 -2.62307e-16 -5.65534e-16)
(0.0440799 -3.42554e-16 -5.44571e-16)
(0.054892 -3.82023e-16 -4.73161e-16)
(0.0647212 -3.91191e-16 -3.89743e-16)
(0.0736192 -3.82041e-16 -3.13714e-16)
(0.0816974 -3.63072e-16 -2.50927e-16)
(0.0890707 -3.40104e-16 -2.01367e-16)
(0.0958398 -3.1639e-16 -1.63122e-16)
(0.102089 -2.93408e-16 -1.33566e-16)
(0.107886 -2.71889e-16 -1.10589e-16)
(0.113289 -2.52192e-16 -9.25479e-17)
(0.118344 -2.34416e-16 -7.80993e-17)
(0.123092 -2.18308e-16 -6.69808e-17)
(0.127565 -2.04122e-16 -5.78455e-17)
(0.131791 -1.91507e-16 -5.08403e-17)
(0.135795 -1.79526e-16 -4.48419e-17)
(0.139597 -1.68573e-16 -3.93529e-17)
(0.143214 -1.59196e-16 -3.49088e-17)
(0.146664 -1.51031e-16 -3.08545e-17)
(0.149958 -1.43348e-16 -2.77121e-17)
(0.153109 -1.35615e-16 -2.55135e-17)
(0.156129 -1.2902e-16 -2.2538e-17)
(0.159025 -1.23061e-16 -2.03438e-17)
(0.161807 -1.16766e-16 -1.82858e-17)
(0.164483 -1.12282e-16 -1.65248e-17)
(0.167059 -1.08231e-16 -1.53147e-17)
(0.169541 -1.03065e-16 -1.41496e-17)
(0.171936 -9.83927e-17 -1.30263e-17)
(0.174247 -9.47158e-17 -1.2311e-17)
(0.17648 -9.13054e-17 -1.17559e-17)
(0.178639 -8.73686e-17 -1.12114e-17)
(0.180728 -8.43708e-17 -9.9945e-18)
(0.18275 -8.23875e-17 -9.04291e-18)
(0.18471 -7.9138e-17 -7.95895e-18)
(0.186609 -7.62763e-17 -6.7965e-18)
(0.188451 -7.45109e-17 -6.65097e-18)
(0.190238 -7.22766e-17 -6.9687e-18)
(0.191973 -6.97245e-17 -6.67592e-18)
(0.193659 -6.72668e-17 -6.39161e-18)
(0.195296 -6.45168e-17 -5.50816e-18)
(0.196888 -6.13288e-17 -5.14996e-18)
(0.198436 -5.91878e-17 -4.75657e-18)
(0.199941 -5.80139e-17 -3.72079e-18)
(0.201406 -5.73228e-17 -2.72962e-18)
(0.202832 -5.65741e-17 -2.81693e-18)
(0.204221 -5.54197e-17 -2.82053e-18)
(0.205573 -5.49932e-17 -3.07333e-18)
(0.206891 -5.43895e-17 -3.23963e-18)
(0.208175 -5.3192e-17 -2.92909e-18)
(0.209426 -5.28161e-17 -3.56725e-18)
(0.210646 -5.16463e-17 -4.1317e-18)
(0.211836 -5.00099e-17 -3.45192e-18)
(0.212996 -4.93961e-17 -2.84837e-18)
(0.214128 -4.84533e-17 -2.93316e-18)
(0.215232 -4.7254e-17 -2.94075e-18)
(0.216309 -4.61653e-17 -2.22358e-18)
(0.21736 -4.52251e-17 -1.24068e-18)
(0.218386 -4.48838e-17 -1.02979e-19)
(0.219388 -4.51597e-17 -1.96231e-19)
(0.220366 -4.54447e-17 -4.32786e-19)
(0.22132 -4.4158e-17 -8.68147e-19)
(0.222252 -4.21279e-17 -1.05679e-18)
(0.223162 -4.14992e-17 -1.33796e-19)
(0.22405 -4.17011e-17 8.09292e-19)
(0.224917 -4.22446e-17 9.41469e-19)
(0.225764 -4.23623e-17 5.53771e-20)
(0.226592 -4.16883e-17 -6.62881e-19)
(0.227399 -4.09755e-17 -7.33065e-19)
(0.228188 -4.05158e-17 -8.77557e-19)
(0.228957 -4.01349e-17 -7.31124e-19)
(0.229709 -3.9612e-17 -5.64988e-19)
(0.230443 -3.93805e-17 1.69739e-19)
(0.231159 -3.90871e-17 -6.88384e-19)
(0.231858 -3.8526e-17 -8.86307e-19)
(0.23254 -3.79744e-17 -2.30892e-18)
(0.233206 -3.65378e-17 -1.57433e-18)
(0.233856 -3.42454e-17 -2.0986e-18)
(0.234489 -3.41004e-17 -3.56674e-19)
(0.235107 -3.55357e-17 -1.09251e-18)
(0.235709 -3.50619e-17 -2.78123e-18)
(0.236296 -3.33897e-17 -3.49589e-18)
(0.236868 -3.29231e-17 -3.26351e-18)
(0.237426 -3.21777e-17 -4.34289e-18)
(0.237968 -2.99868e-17 -4.12416e-18)
(0.238497 -2.83854e-17 -2.0749e-18)
(0.239011 -2.79462e-17 -9.07295e-19)
(0.239511 -2.75397e-17 -1.35074e-18)
(0.239997 -2.73763e-17 -5.88889e-20)
(0.240469 -2.77557e-17 -1.51972e-19)
(0.240927 -2.73533e-17 -7.02752e-21)
(0.241372 -2.746e-17 -1.59929e-19)
(0.241804 -2.72968e-17 -8.11308e-19)
(0.242222 -2.64143e-17 -1.1279e-18)
(0.242627 -2.55736e-17 -2.28257e-18)
(0.243019 -2.28937e-17 -3.06154e-18)
(0.243398 -2.06049e-17 -2.01797e-18)
(0.243763 -2.06372e-17 -1.54207e-18)
(0.244116 -2.0252e-17 -2.61314e-18)
(0.244456 -1.87688e-17 -1.88739e-18)
(0.244783 -1.83258e-17 -8.23395e-20)
(0.245097 -1.8445e-17 -4.34695e-19)
(0.245398 -1.7755e-17 -1.45851e-19)
(0.245686 -1.67357e-17 -1.18807e-18)
(0.245961 -1.5526e-17 -1.73301e-18)
(0.246224 -1.48252e-17 -1.9777e-18)
(0.246473 -1.33678e-17 -2.28563e-18)
(0.24671 -1.28181e-17 -2.8274e-19)
(0.246933 -1.32992e-17 -9.25629e-20)
(0.247143 -1.28608e-17 -6.56877e-19)
(0.247341 -1.24289e-17 -1.91293e-18)
(0.247525 -1.02855e-17 -2.98183e-18)
(0.247695 -7.88584e-18 -2.57882e-18)
(0.247853 -7.35137e-18 -1.39507e-18)
(0.247996 -7.52629e-18 -4.025e-19)
(0.248127 -6.42939e-18 -1.1635e-18)
(0.248243 -3.79519e-18 -3.64858e-19)
(0.248346 -1.95367e-18 1.50324e-19)
(0.248434 -1.97857e-18 1.36513e-18)
(0.248508 -3.01089e-18 1.72141e-18)
(0.248568 -3.64051e-18 -1.65711e-18)
(0.248613 -3.90812e-18 -2.67937e-18)
(0.248643 -2.73212e-18 -4.94983e-18)
(0.248659 2.4827e-19 -1.74131e-18)
(0.00834083 -1.23126e-17 -1.62985e-16)
(0.022967 -8.75721e-17 -3.8279e-16)
(0.0371935 -1.74426e-16 -4.73249e-16)
(0.050582 -2.46375e-16 -4.82334e-16)
(0.0627605 -2.92422e-16 -4.41102e-16)
(0.0736192 -3.14894e-16 -3.80344e-16)
(0.0832866 -3.2041e-16 -3.18857e-16)
(0.091964 -3.14865e-16 -2.64269e-16)
(0.0998318 -3.03199e-16 -2.18851e-16)
(0.10703 -2.88445e-16 -1.81996e-16)
(0.113666 -2.72246e-16 -1.52223e-16)
(0.119822 -2.55877e-16 -1.28354e-16)
(0.125563 -2.40085e-16 -1.09095e-16)
(0.13094 -2.25396e-16 -9.35923e-17)
(0.135996 -2.11615e-16 -8.0832e-17)
(0.140766 -1.99194e-16 -7.066e-17)
(0.145279 -1.87831e-16 -6.1939e-17)
(0.149561 -1.76655e-16 -5.44172e-17)
(0.153632 -1.66405e-16 -4.80863e-17)
(0.157511 -1.57543e-16 -4.22686e-17)
(0.161213 -1.49692e-16 -3.7762e-17)
(0.164754 -1.42763e-16 -3.41561e-17)
(0.168145 -1.35399e-16 -3.17679e-17)
(0.171397 -1.2837e-16 -2.8742e-17)
(0.17452 -1.22466e-16 -2.55711e-17)
(0.177523 -1.1676e-16 -2.31346e-17)
(0.180412 -1.12093e-16 -2.13426e-17)
(0.183197 -1.07669e-16 -1.94856e-17)
(0.185882 -1.02723e-16 -1.79471e-17)
(0.188473 -9.84467e-17 -1.64417e-17)
(0.190977 -9.50225e-17 -1.56666e-17)
(0.193397 -9.14928e-17 -1.51784e-17)
(0.195738 -8.72951e-17 -1.51332e-17)
(0.198004 -8.36718e-17 -1.40638e-17)
(0.200199 -8.12263e-17 -1.23237e-17)
(0.202327 -7.81637e-17 -1.07006e-17)
(0.20439 -7.58305e-17 -9.89995e-18)
(0.206391 -7.43657e-17 -9.49453e-18)