/*--------------------------------*- C++ -*----------------------------------*\
| =========                 |                                                 |
| \\      /  F ield         | OpenFOAM: The Open Source CFD Toolbox           |
|  \\    /   O peration     | Version:  2306                                  |
|   \\  /    A nd           | Website:  www.openfoam.com                      |
|    \\/     M anipulation  |                                                 |
\*---------------------------------------------------------------------------*/
// * * * * * * * * * * * * * * * * * * * * * * * * * * * * * * * * * * * * * //
FoamFile
{
    version         2;
    format          ascii;
    class           volScalarField;
    location        "2977.26";
    object          epsilon;
}

dimensions      [ 0 2 -3 0 0 0 0 ];

internalField   nonuniform List<scalar> 
14751
(
5.01418e-06
4.96735e-06
4.92937e-06
4.85214e-06
4.77163e-06
4.6684e-06
4.55372e-06
4.42849e-06
4.29446e-06
4.15536e-06
4.01324e-06
3.87036e-06
3.72823e-06
3.58882e-06
3.45327e-06
3.32273e-06
3.19795e-06
3.07925e-06
2.9673e-06
2.86206e-06
2.76371e-06
2.67213e-06
2.58716e-06
2.50845e-06
2.43601e-06
2.36936e-06
2.30833e-06
2.25253e-06
2.20173e-06
2.15558e-06
2.11382e-06
2.07617e-06
2.04235e-06
2.01215e-06
1.9853e-06
1.96166e-06
1.94105e-06
1.92324e-06
1.90809e-06
1.89551e-06
1.88543e-06
1.87761e-06
1.87195e-06
1.86836e-06
1.86674e-06
1.86713e-06
1.86947e-06
1.87375e-06
1.87995e-06
1.88809e-06
1.89818e-06
1.91018e-06
1.9241e-06
1.94001e-06
1.95795e-06
1.97797e-06
2.00012e-06
2.02447e-06
2.05111e-06
2.08005e-06
2.11134e-06
2.14513e-06
2.18153e-06
2.22075e-06
2.26291e-06
2.30807e-06
2.35632e-06
2.40785e-06
2.46281e-06
2.52123e-06
2.58325e-06
2.64897e-06
2.71853e-06
2.79198e-06
2.86941e-06
2.95121e-06
3.03711e-06
3.12739e-06
3.22188e-06
3.32044e-06
3.42314e-06
3.52943e-06
3.63963e-06
3.7526e-06
3.86836e-06
3.98605e-06
4.10474e-06
4.22359e-06
4.34093e-06
4.45546e-06
4.56561e-06
4.66771e-06
4.76242e-06
4.8441e-06
4.91315e-06
4.96484e-06
5.00117e-06
5.01267e-06
5.03036e-06
3.86085e-06
3.82588e-06
3.79287e-06
3.73549e-06
3.67366e-06
3.59738e-06
3.51313e-06
3.42176e-06
3.32462e-06
3.22408e-06
3.12158e-06
3.01865e-06
2.91633e-06
2.81587e-06
2.71805e-06
2.62364e-06
2.53318e-06
2.44695e-06
2.36538e-06
2.28851e-06
2.21645e-06
2.14918e-06
2.08661e-06
2.02852e-06
1.97492e-06
1.92551e-06
1.88017e-06
1.83865e-06
1.8008e-06
1.76637e-06
1.73519e-06
1.70706e-06
1.68179e-06
1.65923e-06
1.63921e-06
1.62159e-06
1.60625e-06
1.59305e-06
1.58189e-06
1.57267e-06
1.56535e-06
1.55978e-06
1.55588e-06
1.55359e-06
1.55285e-06
1.55366e-06
1.55599e-06
1.55982e-06
1.56514e-06
1.57197e-06
1.58031e-06
1.59013e-06
1.60145e-06
1.6143e-06
1.62873e-06
1.64476e-06
1.66244e-06
1.68181e-06
1.70293e-06
1.72582e-06
1.75052e-06
1.77713e-06
1.80572e-06
1.83643e-06
1.86932e-06
1.90446e-06
1.9419e-06
1.98177e-06
2.02415e-06
2.06907e-06
2.11662e-06
2.16685e-06
2.21985e-06
2.27564e-06
2.33427e-06
2.39594e-06
2.46049e-06
2.52805e-06
2.59849e-06
2.67169e-06
2.74764e-06
2.82595e-06
2.90672e-06
2.98918e-06
3.07325e-06
3.15827e-06
3.24355e-06
3.32842e-06
3.41174e-06
3.49254e-06
3.56964e-06
3.64075e-06
3.70581e-06
3.76156e-06
3.80773e-06
3.8417e-06
3.86399e-06
3.87018e-06
3.8764e-06
3.10554e-06
3.07586e-06
3.04411e-06
2.99635e-06
2.94349e-06
2.88101e-06
2.81274e-06
2.73957e-06
2.66267e-06
2.5837e-06
2.50375e-06
2.4239e-06
2.34494e-06
2.26765e-06
2.1926e-06
2.12029e-06
2.0511e-06
1.98522e-06
1.92291e-06
1.86422e-06
1.8092e-06
1.75783e-06
1.71004e-06
1.66568e-06
1.62473e-06
1.58698e-06
1.55234e-06
1.52063e-06
1.49171e-06
1.46543e-06
1.44165e-06
1.42021e-06
1.40099e-06
1.38387e-06
1.36871e-06
1.35542e-06
1.34391e-06
1.33407e-06
1.32582e-06
1.3191e-06
1.31386e-06
1.31e-06
1.30747e-06
1.30623e-06
1.30623e-06
1.30746e-06
1.3099e-06
1.31355e-06
1.31838e-06
1.32442e-06
1.33165e-06
1.34008e-06
1.34971e-06
1.36057e-06
1.37269e-06
1.3861e-06
1.40082e-06
1.4169e-06
1.43437e-06
1.45326e-06
1.47361e-06
1.49547e-06
1.51892e-06
1.54404e-06
1.57087e-06
1.59947e-06
1.62989e-06
1.6622e-06
1.69647e-06
1.73273e-06
1.77103e-06
1.81142e-06
1.85394e-06
1.89862e-06
1.94548e-06
1.99463e-06
2.04597e-06
2.09956e-06
2.1553e-06
2.21308e-06
2.27287e-06
2.33436e-06
2.39754e-06
2.46188e-06
2.5272e-06
2.593e-06
2.65872e-06
2.72379e-06
2.78739e-06
2.8487e-06
2.90683e-06
2.96021e-06
3.00842e-06
3.04944e-06
3.08262e-06
3.10644e-06
3.12061e-06
3.12313e-06
3.12186e-06
2.56959e-06
2.54225e-06
2.51077e-06
2.46828e-06
2.42068e-06
2.36656e-06
2.30817e-06
2.24642e-06
2.18238e-06
2.11725e-06
2.0519e-06
1.98715e-06
1.92357e-06
1.8617e-06
1.8019e-06
1.74452e-06
1.68979e-06
1.63785e-06
1.58884e-06
1.54277e-06
1.49966e-06
1.45946e-06
1.42212e-06
1.38752e-06
1.35561e-06
1.32624e-06
1.29932e-06
1.27471e-06
1.25231e-06
1.232e-06
1.21365e-06
1.19716e-06
1.18243e-06
1.16936e-06
1.15785e-06
1.14783e-06
1.13922e-06
1.13194e-06
1.12594e-06
1.12117e-06
1.11758e-06
1.11511e-06
1.11372e-06
1.11337e-06
1.11404e-06
1.11571e-06
1.11838e-06
1.12203e-06
1.12665e-06
1.13225e-06
1.13883e-06
1.14639e-06
1.15496e-06
1.16453e-06
1.17515e-06
1.18682e-06
1.19958e-06
1.21346e-06
1.22849e-06
1.24469e-06
1.2621e-06
1.28076e-06
1.30072e-06
1.32205e-06
1.34478e-06
1.36896e-06
1.39462e-06
1.42182e-06
1.45061e-06
1.48101e-06
1.51306e-06
1.54681e-06
1.58227e-06
1.61946e-06
1.65839e-06
1.69912e-06
1.74159e-06
1.7858e-06
1.83169e-06
1.87915e-06
1.92811e-06
1.97834e-06
2.02975e-06
2.08195e-06
2.13472e-06
2.18764e-06
2.24026e-06
2.29206e-06
2.34241e-06
2.39064e-06
2.436e-06
2.4774e-06
2.51422e-06
2.54517e-06
2.56945e-06
2.58611e-06
2.59448e-06
2.59368e-06
2.58715e-06
2.16672e-06
2.14043e-06
2.10924e-06
2.07015e-06
2.02633e-06
1.97801e-06
1.92667e-06
1.87315e-06
1.81833e-06
1.76315e-06
1.70831e-06
1.65444e-06
1.60197e-06
1.55126e-06
1.50254e-06
1.45603e-06
1.41187e-06
1.37014e-06
1.33089e-06
1.29412e-06
1.2598e-06
1.2279e-06
1.19833e-06
1.17101e-06
1.14586e-06
1.12278e-06
1.10167e-06
1.08243e-06
1.06497e-06
1.04918e-06
1.03498e-06
1.02228e-06
1.01099e-06
1.00104e-06
9.92358e-07
9.84878e-07
9.78541e-07
9.7329e-07
9.6908e-07
9.6587e-07
9.63624e-07
9.62298e-07
9.61862e-07
9.62291e-07
9.63567e-07
9.65678e-07
9.68614e-07
9.72368e-07
9.76937e-07
9.82323e-07
9.88527e-07
9.9556e-07
1.00343e-06
1.01217e-06
1.02177e-06
1.03227e-06
1.04369e-06
1.05605e-06
1.06938e-06
1.0837e-06
1.09904e-06
1.11545e-06
1.13294e-06
1.15158e-06
1.1714e-06
1.19242e-06
1.21468e-06
1.23822e-06
1.26308e-06
1.28927e-06
1.31684e-06
1.34579e-06
1.37615e-06
1.40792e-06
1.44111e-06
1.47573e-06
1.51175e-06
1.54914e-06
1.58784e-06
1.62775e-06
1.66878e-06
1.71074e-06
1.7535e-06
1.79675e-06
1.84025e-06
1.88365e-06
1.92654e-06
1.96849e-06
2.00898e-06
2.04743e-06
2.08325e-06
2.11562e-06
2.14388e-06
2.16715e-06
2.18466e-06
2.1957e-06
2.19957e-06
2.19576e-06
2.18548e-06
1.85102e-06
1.82537e-06
1.79476e-06
1.7583e-06
1.7177e-06
1.67398e-06
1.62822e-06
1.58117e-06
1.53364e-06
1.48624e-06
1.43958e-06
1.39412e-06
1.35022e-06
1.30809e-06
1.26789e-06
1.22972e-06
1.19368e-06
1.15978e-06
1.12803e-06
1.0984e-06
1.07084e-06
1.04531e-06
1.02173e-06
1.00002e-06
9.80093e-07
9.61867e-07
9.45259e-07
9.30181e-07
9.16553e-07
9.04294e-07
8.93331e-07
8.83591e-07
8.75008e-07
8.6752e-07
8.6107e-07
8.55606e-07
8.5108e-07
8.4745e-07
8.4468e-07
8.42738e-07
8.41594e-07
8.41218e-07
8.41587e-07
8.42684e-07
8.44494e-07
8.4701e-07
8.50222e-07
8.54127e-07
8.58723e-07
8.64011e-07
8.69996e-07
8.76691e-07
8.84106e-07
8.92256e-07
9.01156e-07
9.10823e-07
9.21277e-07
9.32539e-07
9.44631e-07
9.57574e-07
9.71395e-07
9.86118e-07
1.00178e-06
1.01841e-06
1.03603e-06
1.05468e-06
1.07437e-06
1.09514e-06
1.11701e-06
1.14e-06
1.16413e-06
1.18941e-06
1.21585e-06
1.24345e-06
1.2722e-06
1.30209e-06
1.33309e-06
1.36517e-06
1.39826e-06
1.43225e-06
1.46706e-06
1.50251e-06
1.53844e-06
1.57462e-06
1.61079e-06
1.64663e-06
1.68181e-06
1.71593e-06
1.74857e-06
1.77924e-06
1.80745e-06
1.83258e-06
1.85402e-06
1.8711e-06
1.88318e-06
1.88967e-06
1.88995e-06
1.8836e-06
1.87072e-06
1.59603e-06
1.57101e-06
1.54135e-06
1.50724e-06
1.46968e-06
1.42997e-06
1.38899e-06
1.34739e-06
1.30587e-06
1.26494e-06
1.22498e-06
1.18636e-06
1.14937e-06
1.11412e-06
1.08071e-06
1.04919e-06
1.01958e-06
9.91881e-07
9.66052e-07
9.42056e-07
9.19833e-07
8.99324e-07
8.80456e-07
8.63161e-07
8.47351e-07
8.32955e-07
8.19897e-07
8.08106e-07
7.9751e-07
7.88045e-07
7.79648e-07
7.72262e-07
7.6583e-07
7.60304e-07
7.55638e-07
7.51791e-07
7.48722e-07
7.46401e-07
7.44798e-07
7.43889e-07
7.43651e-07
7.44061e-07
7.45102e-07
7.46761e-07
7.4903e-07
7.51901e-07
7.55367e-07
7.59427e-07
7.6408e-07
7.69326e-07
7.75176e-07
7.8164e-07
7.88729e-07
7.96455e-07
8.04831e-07
8.13872e-07
8.23595e-07
8.34018e-07
8.45158e-07
8.57035e-07
8.6967e-07
8.83083e-07
8.97299e-07
9.12344e-07
9.28237e-07
9.44999e-07
9.62649e-07
9.81206e-07
1.00069e-06
1.0211e-06
1.04247e-06
1.06478e-06
1.08804e-06
1.11224e-06
1.13737e-06
1.1634e-06
1.1903e-06
1.21801e-06
1.24648e-06
1.27561e-06
1.30527e-06
1.33533e-06
1.36563e-06
1.39594e-06
1.42602e-06
1.4556e-06
1.48438e-06
1.51202e-06
1.53816e-06
1.56239e-06
1.58431e-06
1.60344e-06
1.61928e-06
1.63132e-06
1.63901e-06
1.64181e-06
1.63922e-06
1.63086e-06
1.61629e-06
1.38542e-06
1.36123e-06
1.33286e-06
1.30106e-06
1.26648e-06
1.23045e-06
1.19377e-06
1.15695e-06
1.12062e-06
1.08518e-06
1.05091e-06
1.01803e-06
9.86761e-07
9.57184e-07
9.29331e-07
9.03215e-07
8.78817e-07
8.5612e-07
8.3506e-07
8.15589e-07
7.9764e-07
7.81152e-07
7.66055e-07
7.52288e-07
7.39765e-07
7.28426e-07
7.18203e-07
7.09038e-07
7.00867e-07
6.93636e-07
6.87295e-07
6.81795e-07
6.77091e-07
6.73143e-07
6.69914e-07
6.6737e-07
6.6548e-07
6.6422e-07
6.63566e-07
6.63499e-07
6.64002e-07
6.65058e-07
6.66654e-07
6.6878e-07
6.71432e-07
6.74602e-07
6.78286e-07
6.82484e-07
6.87195e-07
6.92419e-07
6.98173e-07
7.04463e-07
7.11299e-07
7.18691e-07
7.26651e-07
7.35192e-07
7.44327e-07
7.54071e-07
7.64439e-07
7.75446e-07
7.8711e-07
7.99445e-07
8.12471e-07
8.26205e-07
8.40663e-07
8.55857e-07
8.71803e-07
8.8851e-07
9.05987e-07
9.2424e-07
9.43272e-07
9.6308e-07
9.83653e-07
1.00497e-06
1.02702e-06
1.04976e-06
1.07316e-06
1.09715e-06
1.12167e-06
1.14663e-06
1.17189e-06
1.19734e-06
1.2228e-06
1.24809e-06
1.27298e-06
1.29722e-06
1.32055e-06
1.34269e-06
1.36332e-06
1.38212e-06
1.39874e-06
1.41291e-06
1.42415e-06
1.43205e-06
1.43618e-06
1.43602e-06
1.43121e-06
1.42135e-06
1.40584e-06
1.2086e-06
1.18551e-06
1.15871e-06
1.12926e-06
1.09763e-06
1.06508e-06
1.03235e-06
9.99835e-07
9.68085e-07
9.37403e-07
9.08012e-07
8.80026e-07
8.53586e-07
8.28747e-07
8.05509e-07
7.83853e-07
7.63737e-07
7.4513e-07
7.27955e-07
7.12159e-07
6.97674e-07
6.84439e-07
6.72387e-07
6.61464e-07
6.5159e-07
6.42714e-07
6.34776e-07
6.27724e-07
6.21506e-07
6.16077e-07
6.11393e-07
6.07414e-07
6.04105e-07
6.01432e-07
5.99365e-07
5.97876e-07
5.96942e-07
5.96543e-07
5.96661e-07
5.9728e-07
5.98386e-07
5.99968e-07
6.02017e-07
6.04525e-07
6.07487e-07
6.109e-07
6.14761e-07
6.19068e-07
6.2382e-07
6.29025e-07
6.34695e-07
6.40836e-07
6.47457e-07
6.54566e-07
6.62172e-07
6.70285e-07
6.78919e-07
6.88084e-07
6.97791e-07
7.08052e-07
7.18881e-07
7.30288e-07
7.42288e-07
7.5489e-07
7.68105e-07
7.81941e-07
7.96405e-07
8.11503e-07
8.27234e-07
8.436e-07
8.60594e-07
8.78208e-07
8.96423e-07
9.15218e-07
9.34562e-07
9.54412e-07
9.74727e-07
9.9545e-07
1.0165e-06
1.03779e-06
1.05919e-06
1.0806e-06
1.10184e-06
1.12274e-06
1.14311e-06
1.16271e-06
1.18134e-06
1.19874e-06
1.21465e-06
1.22885e-06
1.24108e-06
1.25112e-06
1.25858e-06
1.26311e-06
1.26439e-06
1.26193e-06
1.25547e-06
1.2446e-06
1.22878e-06
1.05835e-06
1.03662e-06
1.01164e-06
9.84579e-07
9.5587e-07
9.26619e-07
8.97549e-07
8.6894e-07
8.4127e-07
8.14766e-07
7.89584e-07
7.65816e-07
7.4349e-07
7.22648e-07
7.03273e-07
6.85328e-07
6.68756e-07
6.53518e-07
6.39532e-07
6.26744e-07
6.15085e-07
6.04498e-07
5.94921e-07
5.86307e-07
5.78581e-07
5.71701e-07
5.65612e-07
5.60272e-07
5.55636e-07
5.51664e-07
5.48322e-07
5.45577e-07
5.43398e-07
5.41758e-07
5.40632e-07
5.40001e-07
5.39842e-07
5.40141e-07
5.40883e-07
5.42057e-07
5.43653e-07
5.4566e-07
5.48072e-07
5.50884e-07
5.54093e-07
5.57695e-07
5.61688e-07
5.6607e-07
5.70843e-07
5.76017e-07
5.81601e-07
5.87599e-07
5.9402e-07
6.00868e-07
6.08153e-07
6.15882e-07
6.24065e-07
6.32709e-07
6.41823e-07
6.51417e-07
6.61498e-07
6.72073e-07
6.83151e-07
6.94737e-07
7.06837e-07
7.19452e-07
7.32585e-07
7.46235e-07
7.60395e-07
7.75061e-07
7.90221e-07
8.05858e-07
8.2195e-07
8.38468e-07
8.55377e-07
8.72628e-07
8.90175e-07
9.0796e-07
9.259e-07
9.43912e-07
9.61873e-07
9.7968e-07
9.97173e-07
1.01421e-06
1.0306e-06
1.04615e-06
1.06068e-06
1.07399e-06
1.08591e-06
1.09625e-06
1.10482e-06
1.11145e-06
1.11584e-06
1.11769e-06
1.11675e-06
1.11258e-06
1.105e-06
1.09361e-06
1.07794e-06
9.29561e-07
9.09439e-07
8.86416e-07
8.61783e-07
8.3593e-07
8.0982e-07
7.84137e-07
7.59077e-07
7.35052e-07
7.12229e-07
6.90712e-07
6.7056e-07
6.51756e-07
6.34302e-07
6.18176e-07
6.03332e-07
5.89706e-07
5.77256e-07
5.65899e-07
5.55582e-07
5.4624e-07
5.37819e-07
5.30263e-07
5.2353e-07
5.17554e-07
5.12296e-07
5.07711e-07
5.03762e-07
5.00411e-07
4.97624e-07
4.95371e-07
4.93627e-07
4.92365e-07
4.91563e-07
4.91202e-07
4.91264e-07
4.91733e-07
4.92597e-07
4.93844e-07
4.95464e-07
4.97451e-07
4.99796e-07
5.02495e-07
5.05544e-07
5.0894e-07
5.12679e-07
5.16762e-07
5.21185e-07
5.25953e-07
5.31078e-07
5.36563e-07
5.42413e-07
5.48634e-07
5.5523e-07
5.62207e-07
5.69572e-07
5.7733e-07
5.85487e-07
5.94049e-07
6.03019e-07
6.12405e-07
6.22207e-07
6.32431e-07
6.43076e-07
6.54143e-07
6.6563e-07
6.77533e-07
6.89845e-07
7.02555e-07
7.15653e-07
7.29122e-07
7.42939e-07
7.57078e-07
7.71505e-07
7.86181e-07
8.01054e-07
8.16075e-07
8.31186e-07
8.46305e-07
8.61354e-07
8.76214e-07
8.90795e-07
9.04947e-07
9.18548e-07
9.31431e-07
9.43433e-07
9.54422e-07
9.6426e-07
9.72812e-07
9.79944e-07
9.85492e-07
9.89364e-07
9.91304e-07
9.91071e-07
9.88486e-07
9.83129e-07
9.74909e-07
9.63418e-07
9.4827e-07
8.18502e-07
8.00159e-07
7.79187e-07
7.56966e-07
7.33873e-07
7.10725e-07
6.88164e-07
6.66321e-07
6.45548e-07
6.25967e-07
6.07637e-07
5.90588e-07
5.74803e-07
5.60224e-07
5.46835e-07
5.34588e-07
5.23417e-07
5.13279e-07
5.04096e-07
4.95815e-07
4.88377e-07
4.81733e-07
4.75831e-07
4.70636e-07
4.66088e-07
4.62154e-07
4.58795e-07
4.55978e-07
4.53672e-07
4.51848e-07
4.50482e-07
4.49551e-07
4.49033e-07
4.48912e-07
4.49169e-07
4.49792e-07
4.50767e-07
4.52084e-07
4.53734e-07
4.5571e-07
4.58005e-07
4.60614e-07
4.63533e-07
4.66758e-07
4.70288e-07
4.74119e-07
4.7825e-07
4.82679e-07
4.87416e-07
4.92468e-07
4.97837e-07
5.03525e-07
5.09538e-07
5.15878e-07
5.22549e-07
5.29554e-07
5.36898e-07
5.44583e-07
5.52611e-07
5.60984e-07
5.69704e-07
5.78769e-07
5.88178e-07
5.97929e-07
6.08017e-07
6.18435e-07
6.29175e-07
6.40225e-07
6.5157e-07
6.63195e-07
6.75078e-07
6.87192e-07
6.99508e-07
7.11989e-07
7.24593e-07
7.37267e-07
7.4996e-07
7.62618e-07
7.7516e-07
7.87517e-07
7.99574e-07
8.11256e-07
8.22427e-07
8.32983e-07
8.42782e-07
8.51714e-07
8.59694e-07
8.66607e-07
8.72356e-07
8.76847e-07
8.79961e-07
8.81646e-07
8.81704e-07
8.79926e-07
8.76193e-07
8.70118e-07
8.61663e-07
8.50438e-07
8.36096e-07
7.2237e-07
7.0588e-07
6.86987e-07
6.67125e-07
6.46659e-07
6.26279e-07
6.06575e-07
5.87631e-07
5.69748e-07
5.53011e-07
5.3745e-07
5.23071e-07
5.09854e-07
4.97718e-07
4.86636e-07
4.76565e-07
4.67442e-07
4.59225e-07
4.5184e-07
4.4524e-07
4.39369e-07
4.34185e-07
4.29639e-07
4.25703e-07
4.22322e-07
4.19469e-07
4.1711e-07
4.15217e-07
4.13762e-07
4.12722e-07
4.12076e-07
4.11804e-07
4.1189e-07
4.12317e-07
4.13074e-07
4.14147e-07
4.15527e-07
4.17205e-07
4.19173e-07
4.21426e-07
4.23959e-07
4.26767e-07
4.29846e-07
4.33194e-07
4.36808e-07
4.40687e-07
4.44827e-07
4.49231e-07
4.53909e-07
4.58863e-07
4.64093e-07
4.69601e-07
4.75391e-07
4.81463e-07
4.8782e-07
4.94462e-07
5.0139e-07
5.08605e-07
5.16106e-07
5.23891e-07
5.31959e-07
5.40304e-07
5.48922e-07
5.57806e-07
5.66948e-07
5.76337e-07
5.8596e-07
5.95801e-07
6.05843e-07
6.16065e-07
6.26442e-07
6.36946e-07
6.47544e-07
6.58199e-07
6.68867e-07
6.79496e-07
6.90037e-07
7.00438e-07
7.10623e-07
7.20534e-07
7.30064e-07
7.3915e-07
7.47672e-07
7.55545e-07
7.62683e-07
7.69009e-07
7.74457e-07
7.78943e-07
7.82403e-07
7.84778e-07
7.85983e-07
7.86e-07
7.84675e-07
7.8183e-07
7.77386e-07
7.70992e-07
7.62647e-07
7.51975e-07
7.38652e-07
6.38948e-07
6.24314e-07
6.07476e-07
5.89879e-07
5.71881e-07
5.54059e-07
5.36947e-07
5.20598e-07
5.0527e-07
4.91018e-07
4.77854e-07
4.65767e-07
4.54727e-07
4.44666e-07
4.35528e-07
4.27281e-07
4.19866e-07
4.13244e-07
4.07349e-07
4.02137e-07
3.97558e-07
3.93573e-07
3.9014e-07
3.87234e-07
3.84809e-07
3.82839e-07
3.81295e-07
3.80154e-07
3.79391e-07
3.78987e-07
3.78924e-07
3.79186e-07
3.79758e-07
3.80627e-07
3.81782e-07
3.83214e-07
3.84913e-07
3.86873e-07
3.89087e-07
3.9155e-07
3.94259e-07
3.97208e-07
4.00396e-07
4.03818e-07
4.07473e-07
4.11358e-07
4.15471e-07
4.1982e-07
4.24409e-07
4.29236e-07
4.34303e-07
4.3961e-07
4.45157e-07
4.50945e-07
4.56973e-07
4.6324e-07
4.69744e-07
4.76483e-07
4.83453e-07
4.9065e-07
4.98069e-07
5.05701e-07
5.13538e-07
5.2157e-07
5.29786e-07
5.38171e-07
5.46709e-07
5.55381e-07
5.64167e-07
5.73042e-07
5.81982e-07
5.90955e-07
5.99928e-07
6.08863e-07
6.1772e-07
6.26446e-07
6.34996e-07
6.43326e-07
6.51366e-07
6.59066e-07
6.66331e-07
6.73111e-07
6.79302e-07
6.84865e-07
6.89754e-07
6.93898e-07
6.97258e-07
6.99779e-07
7.01422e-07
7.02157e-07
7.01928e-07
7.00739e-07
6.9847e-07
6.94969e-07
6.90188e-07
6.83807e-07
6.75846e-07
6.65945e-07
6.53786e-07
5.66445e-07
5.53614e-07
5.38763e-07
5.23306e-07
5.07594e-07
4.92108e-07
4.77327e-07
4.63284e-07
4.502e-07
4.3811e-07
4.27012e-07
4.16886e-07
4.07695e-07
3.99387e-07
3.91885e-07
3.85165e-07
3.79174e-07
3.73877e-07
3.69216e-07
3.65149e-07
3.61633e-07
3.58634e-07
3.56115e-07
3.54052e-07
3.52407e-07
3.51157e-07
3.50277e-07
3.49747e-07
3.49546e-07
3.49656e-07
3.50063e-07
3.50753e-07
3.51714e-07
3.52934e-07
3.54404e-07
3.56116e-07
3.58061e-07
3.60236e-07
3.62633e-07
3.65248e-07
3.68078e-07
3.71119e-07
3.74367e-07
3.7782e-07
3.81474e-07
3.85327e-07
3.89382e-07
3.93644e-07
3.98112e-07
4.02785e-07
4.07662e-07
4.12743e-07
4.18026e-07
4.23509e-07
4.2919e-07
4.35065e-07
4.41131e-07
4.47381e-07
4.53811e-07
4.60413e-07
4.67178e-07
4.74095e-07
4.81155e-07
4.88343e-07
4.95646e-07
5.03044e-07
5.10522e-07
5.18057e-07
5.25627e-07
5.33207e-07
5.4077e-07
5.48285e-07
5.55721e-07
5.6304e-07
5.70206e-07
5.7717e-07
5.83892e-07
5.90334e-07
5.96435e-07
6.02157e-07
6.07417e-07
6.12178e-07
6.16365e-07
6.19993e-07
6.23012e-07
6.25375e-07
6.27062e-07
6.28044e-07
6.28302e-07
6.27828e-07
6.26584e-07
6.24591e-07
6.21756e-07
6.17949e-07
6.13135e-07
6.07032e-07
5.99661e-07
5.9068e-07
5.79769e-07
5.03378e-07
4.92255e-07
4.79285e-07
4.65817e-07
4.52195e-07
4.3882e-07
4.26116e-07
4.14108e-07
4.02983e-07
3.92765e-07
3.83441e-07
3.74986e-07
3.67363e-07
3.60527e-07
3.54403e-07
3.48959e-07
3.44155e-07
3.39958e-07
3.36317e-07
3.33195e-07
3.30555e-07
3.28365e-07
3.26593e-07
3.2522e-07
3.24211e-07
3.23546e-07
3.23205e-07
3.23168e-07
3.23419e-07
3.23943e-07
3.24725e-07
3.25755e-07
3.27022e-07
3.28516e-07
3.3023e-07
3.32155e-07
3.34285e-07
3.36615e-07
3.3914e-07
3.41856e-07
3.44759e-07
3.47845e-07
3.5111e-07
3.54552e-07
3.58167e-07
3.61955e-07
3.6592e-07
3.70062e-07
3.7438e-07
3.7887e-07
3.8353e-07
3.88359e-07
3.93353e-07
3.98509e-07
4.03821e-07
4.09285e-07
4.14894e-07
4.20641e-07
4.26516e-07
4.32511e-07
4.38615e-07
4.44814e-07
4.51095e-07
4.57443e-07
4.63841e-07
4.70269e-07
4.76709e-07
4.83137e-07
4.89531e-07
4.95865e-07
5.02114e-07
5.08247e-07
5.14235e-07
5.20046e-07
5.25645e-07
5.30991e-07
5.3605e-07
5.40792e-07
5.45168e-07
5.49147e-07
5.52662e-07
5.55689e-07
5.58221e-07
5.6026e-07
5.61771e-07
5.62728e-07
5.63128e-07
5.6296e-07
5.62221e-07
5.60916e-07
5.59023e-07
5.56571e-07
5.53485e-07
5.49652e-07
5.45047e-07
5.39416e-07
5.32778e-07
5.24803e-07
5.15172e-07
4.48489e-07
4.3895e-07
4.27731e-07
4.16085e-07
4.04349e-07
3.92862e-07
3.81994e-07
3.71768e-07
3.62344e-07
3.53736e-07
3.45929e-07
3.38895e-07
3.32597e-07
3.26993e-07
3.22028e-07
3.17652e-07
3.13834e-07
3.10548e-07
3.0775e-07
3.05407e-07
3.03485e-07
3.01958e-07
3.00797e-07
2.99984e-07
2.99491e-07
2.993e-07
2.99393e-07
2.99753e-07
3.00364e-07
3.01215e-07
3.02294e-07
3.03589e-07
3.05092e-07
3.06795e-07
3.0869e-07
3.1077e-07
3.1303e-07
3.15464e-07
3.18068e-07
3.20838e-07
3.23769e-07
3.26859e-07
3.30102e-07
3.33495e-07
3.37036e-07
3.40728e-07
3.44571e-07
3.48561e-07
3.52698e-07
3.56976e-07
3.61392e-07
3.65942e-07
3.70622e-07
3.75426e-07
3.80347e-07
3.85378e-07
3.90511e-07
3.95736e-07
4.01042e-07
4.06419e-07
4.11852e-07
4.17327e-07
4.22829e-07
4.2834e-07
4.33844e-07
4.39318e-07
4.44745e-07
4.501e-07
4.55361e-07
4.60505e-07
4.65507e-07
4.7034e-07
4.74979e-07
4.79395e-07
4.83561e-07
4.87442e-07
4.91012e-07
4.9425e-07
4.97118e-07
4.99596e-07
5.01627e-07
5.03238e-07
5.04431e-07
5.05208e-07
5.05553e-07
5.05452e-07
5.04916e-07
5.03947e-07
5.02551e-07
5.00742e-07
4.98507e-07
4.95878e-07
4.92793e-07
4.89152e-07
4.84934e-07
4.7991e-07
4.74087e-07
4.67152e-07
4.58782e-07
4.00697e-07
3.92602e-07
3.82984e-07
3.72985e-07
3.62935e-07
3.53118e-07
3.4386e-07
3.35184e-07
3.27228e-07
3.2e-07
3.13485e-07
3.07654e-07
3.02473e-07
2.97903e-07
2.93902e-07
2.90417e-07
2.87419e-07
2.84887e-07
2.82784e-07
2.8108e-07
2.79746e-07
2.78759e-07
2.78094e-07
2.77736e-07
2.77659e-07
2.77847e-07
2.78285e-07
2.78959e-07
2.79855e-07
2.80961e-07
2.82267e-07
2.83764e-07
2.85443e-07
2.87297e-07
2.89319e-07
2.91504e-07
2.93844e-07
2.96337e-07
2.98976e-07
3.01758e-07
3.04678e-07
3.07732e-07
3.10915e-07
3.14223e-07
3.17661e-07
3.21225e-07
3.24914e-07
3.28723e-07
3.32648e-07
3.36686e-07
3.40829e-07
3.45074e-07
3.49414e-07
3.53842e-07
3.58349e-07
3.62926e-07
3.67564e-07
3.7225e-07
3.76973e-07
3.81719e-07
3.86475e-07
3.91223e-07
3.95947e-07
4.0063e-07
4.05253e-07
4.09796e-07
4.14239e-07
4.18562e-07
4.22742e-07
4.2676e-07
4.30592e-07
4.34218e-07
4.37616e-07
4.40764e-07
4.43641e-07
4.46222e-07
4.48487e-07
4.50425e-07
4.5201e-07
4.53232e-07
4.54055e-07
4.5455e-07
4.54705e-07
4.54531e-07
4.54022e-07
4.53179e-07
4.52019e-07
4.5055e-07
4.48788e-07
4.46746e-07
4.44419e-07
4.41835e-07
4.38943e-07
4.35651e-07
4.31938e-07
4.27599e-07
4.22625e-07
4.16719e-07
4.09553e-07
3.59065e-07
3.52263e-07
3.44089e-07
3.35561e-07
3.26999e-07
3.18648e-07
3.10792e-07
3.03455e-07
2.96759e-07
2.90709e-07
2.85289e-07
2.80474e-07
2.76231e-07
2.72526e-07
2.69323e-07
2.66582e-07
2.64263e-07
2.62353e-07
2.6082e-07
2.59639e-07
2.58784e-07
2.58235e-07
2.5797e-07
2.57976e-07
2.5823e-07
2.58719e-07
2.59429e-07
2.60347e-07
2.6146e-07
2.62759e-07
2.64233e-07
2.65876e-07
2.67679e-07
2.69634e-07
2.71737e-07
2.7398e-07
2.76358e-07
2.78867e-07
2.81501e-07
2.84256e-07
2.87127e-07
2.90109e-07
2.93198e-07
2.96394e-07
2.99697e-07
3.03102e-07
3.06606e-07
3.10203e-07
3.1389e-07
3.17658e-07
3.21502e-07
3.25416e-07
3.29392e-07
3.3342e-07
3.37491e-07
3.41595e-07
3.4572e-07
3.49853e-07
3.53981e-07
3.5809e-07
3.62163e-07
3.66186e-07
3.7014e-07
3.74008e-07
3.77773e-07
3.81415e-07
3.84916e-07
3.88256e-07
3.91419e-07
3.94385e-07
3.97139e-07
3.99663e-07
4.01942e-07
4.03961e-07
4.05706e-07
4.0716e-07
4.08313e-07
4.09163e-07
4.09693e-07
4.099e-07
4.09805e-07
4.0946e-07
4.08857e-07
4.08013e-07
4.06934e-07
4.05625e-07
4.04108e-07
4.02395e-07
4.00501e-07
3.98443e-07
3.96215e-07
3.93841e-07
3.91276e-07
3.88436e-07
3.85297e-07
3.81673e-07
3.77541e-07
3.72621e-07
3.66592e-07
3.22769e-07
3.17113e-07
3.10223e-07
3.02994e-07
2.95735e-07
2.8866e-07
2.82014e-07
2.75828e-07
2.70208e-07
2.65158e-07
2.60664e-07
2.56702e-07
2.53244e-07
2.5026e-07
2.47719e-07
2.45591e-07
2.43834e-07
2.42435e-07
2.41368e-07
2.40611e-07
2.40143e-07
2.39945e-07
2.4e-07
2.40294e-07
2.40808e-07
2.4153e-07
2.42448e-07
2.43549e-07
2.44823e-07
2.46261e-07
2.47854e-07
2.49593e-07
2.51473e-07
2.53486e-07
2.55625e-07
2.57886e-07
2.60263e-07
2.6275e-07
2.65342e-07
2.68035e-07
2.70822e-07
2.73699e-07
2.76665e-07
2.79719e-07
2.82857e-07
2.86074e-07
2.89364e-07
2.92722e-07
2.96141e-07
2.99614e-07
3.03134e-07
3.06693e-07
3.10281e-07
3.13889e-07
3.17506e-07
3.2112e-07
3.24719e-07
3.28289e-07
3.31815e-07
3.35284e-07
3.38679e-07
3.41985e-07
3.45185e-07
3.48262e-07
3.512e-07
3.53982e-07
3.56592e-07
3.59015e-07
3.61236e-07
3.63241e-07
3.6502e-07
3.66561e-07
3.67856e-07
3.68897e-07
3.69677e-07
3.70188e-07
3.70429e-07
3.70405e-07
3.70108e-07
3.69555e-07
3.68799e-07
3.67867e-07
3.66759e-07
3.65497e-07
3.64091e-07
3.62549e-07
3.60895e-07
3.59141e-07
3.57301e-07
3.55387e-07
3.53395e-07
3.51344e-07
3.4919e-07
3.46857e-07
3.44316e-07
3.41401e-07
3.38075e-07
3.34074e-07
3.29092e-07
2.91089e-07
2.86437e-07
2.80676e-07
2.74581e-07
2.68453e-07
2.62479e-07
2.56873e-07
2.51671e-07
2.46965e-07
2.42761e-07
2.39044e-07
2.35797e-07
2.32993e-07
2.30608e-07
2.28613e-07
2.26984e-07
2.25691e-07
2.24709e-07
2.2402e-07
2.23605e-07
2.23447e-07
2.23528e-07
2.23832e-07
2.24349e-07
2.25062e-07
2.2596e-07
2.2703e-07
2.28263e-07
2.29649e-07
2.31179e-07
2.32844e-07
2.34638e-07
2.36553e-07
2.38583e-07
2.40722e-07
2.42963e-07
2.45302e-07
2.47733e-07
2.50249e-07
2.52846e-07
2.55517e-07
2.58262e-07
2.61079e-07
2.63962e-07
2.66906e-07
2.69906e-07
2.72956e-07
2.76048e-07
2.79175e-07
2.8233e-07
2.85503e-07
2.88685e-07
2.91868e-07
2.95039e-07
2.98187e-07
3.01299e-07
3.04364e-07
3.07366e-07
3.10292e-07
3.13126e-07
3.15855e-07
3.18463e-07
3.20935e-07
3.23256e-07
3.25412e-07
3.27388e-07
3.29174e-07
3.30756e-07
3.32125e-07
3.33274e-07
3.34196e-07
3.34887e-07
3.35344e-07
3.35568e-07
3.35558e-07
3.35314e-07
3.34842e-07
3.34153e-07
3.33245e-07
3.32186e-07
3.30996e-07
3.29702e-07
3.2831e-07
3.26842e-07
3.25311e-07
3.23725e-07
3.22106e-07
3.20464e-07
3.18809e-07
3.17152e-07
3.15485e-07
3.13821e-07
3.1212e-07
3.10312e-07
3.08361e-07
3.0612e-07
3.03539e-07
3.00376e-07
2.96338e-07
2.63394e-07
2.59613e-07
2.54832e-07
2.49721e-07
2.44566e-07
2.39536e-07
2.34818e-07
2.30452e-07
2.26519e-07
2.23025e-07
2.1996e-07
2.17309e-07
2.15047e-07
2.13156e-07
2.11609e-07
2.10387e-07
2.09466e-07
2.08824e-07
2.08439e-07
2.08296e-07
2.08381e-07
2.08678e-07
2.09174e-07
2.09859e-07
2.10717e-07
2.1174e-07
2.12916e-07
2.14235e-07
2.15689e-07
2.17269e-07
2.18967e-07
2.20776e-07
2.2269e-07
2.24701e-07
2.26804e-07
2.28993e-07
2.31261e-07
2.33603e-07
2.36012e-07
2.38483e-07
2.41014e-07
2.43601e-07
2.4624e-07
2.48925e-07
2.51651e-07
2.54409e-07
2.57194e-07
2.59998e-07
2.62811e-07
2.65626e-07
2.68434e-07
2.71224e-07
2.73986e-07
2.76708e-07
2.79379e-07
2.81985e-07
2.84515e-07
2.86954e-07
2.89288e-07
2.91505e-07
2.9359e-07
2.95531e-07
2.97313e-07
2.98926e-07
3.00357e-07
3.01597e-07
3.02637e-07
3.03471e-07
3.04093e-07
3.04502e-07
3.04697e-07
3.0468e-07
3.04454e-07
3.04027e-07
3.03404e-07
3.02591e-07
3.01601e-07
3.00449e-07
2.99152e-07
2.97791e-07
2.96365e-07
2.94901e-07
2.93408e-07
2.91906e-07
2.90407e-07
2.8892e-07
2.8746e-07
2.86036e-07
2.84654e-07
2.8332e-07
2.82026e-07
2.80777e-07
2.79537e-07
2.78239e-07
2.76847e-07
2.75226e-07
2.73318e-07
2.70901e-07
2.67698e-07
2.39131e-07
2.36101e-07
2.32163e-07
2.27896e-07
2.23573e-07
2.19346e-07
2.15383e-07
2.11722e-07
2.0844e-07
2.05541e-07
2.03019e-07
2.0086e-07
1.99046e-07
1.97558e-07
1.96376e-07
1.95483e-07
1.94857e-07
1.94485e-07
1.94341e-07
1.94411e-07
1.94682e-07
1.95142e-07
1.95779e-07
1.96584e-07
1.97542e-07
1.98647e-07
1.99886e-07
2.01252e-07
2.02736e-07
2.04329e-07
2.06024e-07
2.07814e-07
2.09693e-07
2.11653e-07
2.13689e-07
2.15794e-07
2.17961e-07
2.20185e-07
2.22459e-07
2.24782e-07
2.27148e-07
2.29553e-07
2.3199e-07
2.34453e-07
2.36936e-07
2.39432e-07
2.41931e-07
2.44426e-07
2.46909e-07
2.49369e-07
2.51797e-07
2.54184e-07
2.56517e-07
2.58787e-07
2.60979e-07
2.63084e-07
2.65087e-07
2.66977e-07
2.6874e-07
2.70366e-07
2.71843e-07
2.73158e-07
2.74304e-07
2.75269e-07
2.76047e-07
2.76633e-07
2.77022e-07
2.77211e-07
2.77202e-07
2.76998e-07
2.76604e-07
2.76027e-07
2.75276e-07
2.74363e-07
2.733e-07
2.72096e-07
2.70769e-07
2.69333e-07
2.6785e-07
2.66359e-07
2.64862e-07
2.63383e-07
2.61931e-07
2.60525e-07
2.59173e-07
2.57882e-07
2.56663e-07
2.55521e-07
2.5446e-07
2.5348e-07
2.52573e-07
2.51738e-07
2.5094e-07
2.50119e-07
2.49236e-07
2.48169e-07
2.46855e-07
2.4509e-07
2.42615e-07
2.17821e-07
2.15431e-07
2.12211e-07
2.08664e-07
2.05047e-07
2.01501e-07
1.98173e-07
1.95106e-07
1.92367e-07
1.89963e-07
1.8789e-07
1.86136e-07
1.84687e-07
1.83527e-07
1.82639e-07
1.82007e-07
1.81614e-07
1.81447e-07
1.81489e-07
1.81721e-07
1.82131e-07
1.82708e-07
1.83443e-07
1.84325e-07
1.85344e-07
1.86492e-07
1.87758e-07
1.89135e-07
1.90615e-07
1.92188e-07
1.93849e-07
1.95589e-07
1.97403e-07
1.99283e-07
2.01223e-07
2.03216e-07
2.05255e-07
2.07336e-07
2.09455e-07
2.11607e-07
2.13786e-07
2.15986e-07
2.182e-07
2.20422e-07
2.22643e-07
2.24857e-07
2.27055e-07
2.29228e-07
2.31367e-07
2.33463e-07
2.35506e-07
2.37485e-07
2.3939e-07
2.41209e-07
2.42933e-07
2.44548e-07
2.46044e-07
2.4741e-07
2.48635e-07
2.4971e-07
2.50625e-07
2.51372e-07
2.51945e-07
2.52338e-07
2.52549e-07
2.52574e-07
2.52415e-07
2.52075e-07
2.51559e-07
2.50875e-07
2.50032e-07
2.49043e-07
2.47921e-07
2.46681e-07
2.45338e-07
2.43906e-07
2.42404e-07
2.40858e-07
2.39337e-07
2.37855e-07
2.36414e-07
2.35036e-07
2.33729e-07
2.32507e-07
2.31377e-07
2.30341e-07
2.29409e-07
2.28579e-07
2.27854e-07
2.2723e-07
2.26697e-07
2.26253e-07
2.25863e-07
2.25472e-07
2.2504e-07
2.24457e-07
2.23657e-07
2.22452e-07
2.206e-07
1.99045e-07
1.97198e-07
1.94584e-07
1.91646e-07
1.88624e-07
1.8565e-07
1.82856e-07
1.80285e-07
1.77997e-07
1.76002e-07
1.74297e-07
1.72873e-07
1.71719e-07
1.70821e-07
1.70165e-07
1.69738e-07
1.69524e-07
1.69513e-07
1.69687e-07
1.70035e-07
1.70542e-07
1.71197e-07
1.71991e-07
1.72915e-07
1.7396e-07
1.75117e-07
1.76379e-07
1.77736e-07
1.7918e-07
1.80705e-07
1.82303e-07
1.83966e-07
1.85687e-07
1.87461e-07
1.8928e-07
1.91137e-07
1.93029e-07
1.94949e-07
1.96893e-07
1.98854e-07
2.00826e-07
2.02803e-07
2.04776e-07
2.0674e-07
2.08686e-07
2.10606e-07
2.12492e-07
2.14335e-07
2.16125e-07
2.17854e-07
2.19511e-07
2.21087e-07
2.22572e-07
2.23956e-07
2.25228e-07
2.26379e-07
2.27398e-07
2.28278e-07
2.29008e-07
2.29584e-07
2.29998e-07
2.30245e-07
2.30323e-07
2.3023e-07
2.29966e-07
2.29535e-07
2.28941e-07
2.2819e-07
2.27293e-07
2.26262e-07
2.25108e-07
2.23849e-07