/*--------------------------------*- C++ -*----------------------------------*\
| =========                 |                                                 |
| \\      /  F ield         | OpenFOAM: The Open Source CFD Toolbox           |
|  \\    /   O peration     | Version:  2306                                  |
|   \\  /    A nd           | Website:  www.openfoam.com                      |
|    \\/     M anipulation  |                                                 |
\*---------------------------------------------------------------------------*/
// * * * * * * * * * * * * * * * * * * * * * * * * * * * * * * * * * * * * * //
FoamFile
{
    version         2;
    format          ascii;
    class           volScalarField;
    location        "2977.26";
    object          k;
}

dimensions      [ 0 2 -2 0 0 0 0 ];

internalField   nonuniform List<scalar> 
14751
(
2.86094e-05
2.8358e-05
2.81409e-05
2.78444e-05
2.7548e-05
2.72132e-05
2.6857e-05
2.64854e-05
2.61004e-05
2.57102e-05
2.53196e-05
2.49337e-05
2.45552e-05
2.41888e-05
2.38368e-05
2.35014e-05
2.31842e-05
2.28854e-05
2.26066e-05
2.23477e-05
2.21091e-05
2.18905e-05
2.16916e-05
2.15111e-05
2.13493e-05
2.12048e-05
2.10774e-05
2.09658e-05
2.08696e-05
2.07879e-05
2.07199e-05
2.06647e-05
2.06218e-05
2.05903e-05
2.05697e-05
2.05595e-05
2.05593e-05
2.05683e-05
2.0586e-05
2.06124e-05
2.06473e-05
2.06897e-05
2.0739e-05
2.07948e-05
2.08565e-05
2.09246e-05
2.09988e-05
2.10789e-05
2.11647e-05
2.12563e-05
2.13536e-05
2.14563e-05
2.15642e-05
2.16775e-05
2.17961e-05
2.192e-05
2.20492e-05
2.21837e-05
2.23236e-05
2.24683e-05
2.26177e-05
2.2772e-05
2.29313e-05
2.30965e-05
2.32677e-05
2.34443e-05
2.36263e-05
2.38141e-05
2.40078e-05
2.42068e-05
2.44111e-05
2.46205e-05
2.48348e-05
2.50538e-05
2.52769e-05
2.55051e-05
2.57374e-05
2.59734e-05
2.62125e-05
2.64523e-05
2.66935e-05
2.69334e-05
2.71731e-05
2.74084e-05
2.76391e-05
2.78634e-05
2.80787e-05
2.82832e-05
2.8473e-05
2.86454e-05
2.87981e-05
2.89224e-05
2.90207e-05
2.90817e-05
2.91044e-05
2.90821e-05
2.90164e-05
2.88868e-05
2.87747e-05
2.77624e-05
2.754e-05
2.73313e-05
2.70697e-05
2.6801e-05
2.65066e-05
2.61947e-05
2.58712e-05
2.5538e-05
2.5201e-05
2.48644e-05
2.45323e-05
2.4207e-05
2.38917e-05
2.35883e-05
2.32984e-05
2.30235e-05
2.27638e-05
2.25206e-05
2.2294e-05
2.20844e-05
2.18916e-05
2.17156e-05
2.15553e-05
2.14111e-05
2.12819e-05
2.11675e-05
2.1067e-05
2.09801e-05
2.0906e-05
2.08441e-05
2.07937e-05
2.07544e-05
2.07255e-05
2.07065e-05
2.06969e-05
2.06965e-05
2.07045e-05
2.07206e-05
2.07447e-05
2.07766e-05
2.08155e-05
2.0861e-05
2.09127e-05
2.09703e-05
2.10339e-05
2.11033e-05
2.11783e-05
2.12587e-05
2.13446e-05
2.14359e-05
2.15324e-05
2.16339e-05
2.17405e-05
2.18522e-05
2.19688e-05
2.20904e-05
2.22171e-05
2.23486e-05
2.24848e-05
2.26255e-05
2.27707e-05
2.29205e-05
2.30756e-05
2.32357e-05
2.34007e-05
2.35703e-05
2.37448e-05
2.39243e-05
2.41081e-05
2.42963e-05
2.44885e-05
2.46846e-05
2.48841e-05
2.50866e-05
2.52926e-05
2.55012e-05
2.57118e-05
2.59239e-05
2.61356e-05
2.6347e-05
2.6556e-05
2.67628e-05
2.69644e-05
2.716e-05
2.73481e-05
2.75263e-05
2.7693e-05
2.78451e-05
2.79801e-05
2.80961e-05
2.81867e-05
2.82521e-05
2.82858e-05
2.82848e-05
2.82468e-05
2.81694e-05
2.80452e-05
2.79209e-05
2.72636e-05
2.70492e-05
2.68361e-05
2.6588e-05
2.63288e-05
2.60535e-05
2.5764e-05
2.54666e-05
2.51631e-05
2.48581e-05
2.45553e-05
2.4258e-05
2.39684e-05
2.36887e-05
2.34202e-05
2.31642e-05
2.29218e-05
2.26932e-05
2.24793e-05
2.22802e-05
2.20962e-05
2.1927e-05
2.17726e-05
2.16323e-05
2.15061e-05
2.13934e-05
2.12937e-05
2.12066e-05
2.11315e-05
2.10679e-05
2.10154e-05
2.09732e-05
2.09411e-05
2.09184e-05
2.09047e-05
2.08997e-05
2.0903e-05
2.09141e-05
2.09326e-05
2.09586e-05
2.09916e-05
2.10313e-05
2.10772e-05
2.11291e-05
2.11867e-05
2.12499e-05
2.13187e-05
2.13928e-05
2.14721e-05
2.15566e-05
2.16462e-05
2.17408e-05
2.18402e-05
2.19445e-05
2.20536e-05
2.21675e-05
2.22862e-05
2.24095e-05
2.25376e-05
2.267e-05
2.28068e-05
2.29479e-05
2.30933e-05
2.32432e-05
2.33978e-05
2.35566e-05
2.37195e-05
2.38866e-05
2.40578e-05
2.42327e-05
2.44111e-05
2.45928e-05
2.47774e-05
2.49644e-05
2.51535e-05
2.53447e-05
2.55373e-05
2.57305e-05
2.59238e-05
2.61155e-05
2.63056e-05
2.6492e-05
2.66745e-05
2.68508e-05
2.70196e-05
2.71796e-05
2.73287e-05
2.74652e-05
2.75867e-05
2.76907e-05
2.77757e-05
2.78366e-05
2.78724e-05
2.78798e-05
2.78544e-05
2.77966e-05
2.77019e-05
2.75703e-05
2.74272e-05
2.68723e-05
2.66553e-05
2.64331e-05
2.61883e-05
2.59316e-05
2.56663e-05
2.53902e-05
2.51097e-05
2.48267e-05
2.45446e-05
2.4267e-05
2.39967e-05
2.37356e-05
2.34849e-05
2.32459e-05
2.30192e-05
2.28057e-05
2.26054e-05
2.24188e-05
2.22459e-05
2.20868e-05
2.19413e-05
2.18092e-05
2.16899e-05
2.15833e-05
2.14889e-05
2.14062e-05
2.13348e-05
2.12742e-05
2.1224e-05
2.11837e-05
2.11529e-05
2.1131e-05
2.11178e-05
2.11127e-05
2.11155e-05
2.11259e-05
2.11434e-05
2.11678e-05
2.11989e-05
2.12366e-05
2.12804e-05
2.13301e-05
2.13855e-05
2.14462e-05
2.15123e-05
2.15836e-05
2.16599e-05
2.17411e-05
2.18272e-05
2.19181e-05
2.20138e-05
2.21141e-05
2.2219e-05
2.23284e-05
2.24424e-05
2.25608e-05
2.26837e-05
2.28109e-05
2.29423e-05
2.30777e-05
2.3217e-05
2.33603e-05
2.35076e-05
2.36589e-05
2.38138e-05
2.39723e-05
2.41342e-05
2.42994e-05
2.44675e-05
2.46383e-05
2.48114e-05
2.49864e-05
2.51629e-05
2.53403e-05
2.55184e-05
2.56967e-05
2.58742e-05
2.60503e-05
2.62236e-05
2.63936e-05
2.65587e-05
2.67181e-05
2.68699e-05
2.70128e-05
2.71456e-05
2.72661e-05
2.73729e-05
2.7464e-05
2.75372e-05
2.7591e-05
2.76216e-05
2.76272e-05
2.76066e-05
2.75547e-05
2.74738e-05
2.7358e-05
2.72114e-05
2.70472e-05
2.64945e-05
2.62701e-05
2.60382e-05
2.57926e-05
2.55362e-05
2.52773e-05
2.50112e-05
2.47445e-05
2.44784e-05
2.42158e-05
2.396e-05
2.37133e-05
2.34775e-05
2.32533e-05
2.30414e-05
2.2842e-05
2.26559e-05
2.24826e-05
2.23224e-05
2.21753e-05
2.20411e-05
2.19196e-05
2.18104e-05
2.1713e-05
2.1627e-05
2.15521e-05
2.14879e-05
2.14338e-05
2.13895e-05
2.13545e-05
2.13284e-05
2.13109e-05
2.13014e-05
2.12997e-05
2.13054e-05
2.13182e-05
2.13379e-05
2.13641e-05
2.13965e-05
2.14351e-05
2.14796e-05
2.15298e-05
2.15855e-05
2.16464e-05
2.17124e-05
2.17833e-05
2.18591e-05
2.19396e-05
2.20246e-05
2.21142e-05
2.22082e-05
2.23066e-05
2.24094e-05
2.25164e-05
2.26277e-05
2.27432e-05
2.28628e-05
2.29864e-05
2.3114e-05
2.32454e-05
2.33804e-05
2.35189e-05
2.36608e-05
2.38061e-05
2.39547e-05
2.41063e-05
2.42607e-05
2.44177e-05
2.45771e-05
2.47386e-05
2.49017e-05
2.50661e-05
2.52313e-05
2.53969e-05
2.55621e-05
2.57267e-05
2.589e-05
2.60511e-05
2.62094e-05
2.63632e-05
2.65124e-05
2.6655e-05
2.67904e-05
2.69168e-05
2.70328e-05
2.71372e-05
2.72284e-05
2.73047e-05
2.73646e-05
2.74063e-05
2.74284e-05
2.74282e-05
2.74034e-05
2.7354e-05
2.72752e-05
2.717e-05
2.70323e-05
2.68677e-05
2.6683e-05
2.60958e-05
2.58629e-05
2.5623e-05
2.53758e-05
2.51201e-05
2.48668e-05
2.46103e-05
2.43567e-05
2.4107e-05
2.38632e-05
2.36281e-05
2.3404e-05
2.31923e-05
2.29933e-05
2.28074e-05
2.26344e-05
2.24747e-05
2.23277e-05
2.21935e-05
2.20718e-05
2.19622e-05
2.18645e-05
2.17782e-05
2.17028e-05
2.16379e-05
2.1583e-05
2.15378e-05
2.15017e-05
2.14744e-05
2.14555e-05
2.14446e-05
2.14413e-05
2.14453e-05
2.14563e-05
2.14739e-05
2.14979e-05
2.15281e-05
2.15641e-05
2.16058e-05
2.16531e-05
2.17057e-05
2.17635e-05
2.18263e-05
2.1894e-05
2.19663e-05
2.20431e-05
2.21244e-05
2.221e-05
2.22998e-05
2.23937e-05
2.24916e-05
2.25936e-05
2.26995e-05
2.28094e-05
2.29231e-05
2.30406e-05
2.31617e-05
2.32865e-05
2.34147e-05
2.35462e-05
2.36808e-05
2.38184e-05
2.39587e-05
2.41018e-05
2.42473e-05
2.43951e-05
2.45448e-05
2.46963e-05
2.48492e-05
2.50031e-05
2.51576e-05
2.53122e-05
2.54665e-05
2.56198e-05
2.57716e-05
2.59212e-05
2.60683e-05
2.62115e-05
2.63504e-05
2.64835e-05
2.66103e-05
2.67291e-05
2.68391e-05
2.69387e-05
2.70266e-05
2.71018e-05
2.71627e-05
2.72079e-05
2.72364e-05
2.72464e-05
2.72372e-05
2.72063e-05
2.71519e-05
2.70745e-05
2.69699e-05
2.68411e-05
2.66827e-05
2.65003e-05
2.62976e-05
2.56664e-05
2.54265e-05
2.51814e-05
2.49339e-05
2.4681e-05
2.44344e-05
2.41884e-05
2.39486e-05
2.37158e-05
2.34913e-05
2.32773e-05
2.30756e-05
2.28876e-05
2.27133e-05
2.25527e-05
2.24054e-05
2.22714e-05
2.215e-05
2.20409e-05
2.19439e-05
2.18583e-05
2.17839e-05
2.17201e-05
2.16663e-05
2.16221e-05
2.1587e-05
2.15607e-05
2.15426e-05
2.15324e-05
2.15297e-05
2.15341e-05
2.15454e-05
2.15631e-05
2.15871e-05
2.1617e-05
2.16526e-05
2.16937e-05
2.174e-05
2.17915e-05
2.18479e-05
2.19091e-05
2.1975e-05
2.20454e-05
2.21203e-05
2.21993e-05
2.22824e-05
2.23695e-05
2.24605e-05
2.25553e-05
2.26537e-05
2.27557e-05
2.28614e-05
2.29706e-05
2.30833e-05
2.31993e-05
2.33187e-05
2.34412e-05
2.35668e-05
2.36952e-05
2.38264e-05
2.39601e-05
2.4096e-05
2.42341e-05
2.4374e-05
2.45156e-05
2.46586e-05
2.48026e-05
2.49474e-05
2.50925e-05
2.52375e-05
2.5382e-05
2.55255e-05
2.56673e-05
2.58069e-05
2.59435e-05
2.60767e-05
2.62057e-05
2.63296e-05
2.64476e-05
2.65583e-05
2.66612e-05
2.67549e-05
2.68383e-05
2.69102e-05
2.69692e-05
2.70145e-05
2.70448e-05
2.70591e-05
2.70564e-05
2.70354e-05
2.69957e-05
2.69354e-05
2.6853e-05
2.67495e-05
2.66214e-05
2.64713e-05
2.62948e-05
2.60969e-05
2.58798e-05
2.52074e-05
2.49633e-05
2.47167e-05
2.44714e-05
2.42241e-05
2.39861e-05
2.37524e-05
2.35278e-05
2.33129e-05
2.31086e-05
2.29163e-05
2.27374e-05
2.25729e-05
2.24229e-05
2.2287e-05
2.21647e-05
2.20555e-05
2.19588e-05
2.1874e-05
2.18006e-05
2.17382e-05
2.16861e-05
2.16439e-05
2.16108e-05
2.15866e-05
2.15706e-05
2.15625e-05
2.15619e-05
2.15682e-05
2.15813e-05
2.16008e-05
2.16263e-05
2.16575e-05
2.16943e-05
2.17363e-05
2.17834e-05
2.18353e-05
2.18919e-05
2.1953e-05
2.20185e-05
2.20883e-05
2.21623e-05
2.22403e-05
2.23223e-05
2.24079e-05
2.24972e-05
2.259e-05
2.26863e-05
2.27858e-05
2.28885e-05
2.29943e-05
2.31033e-05
2.32154e-05
2.33305e-05
2.34485e-05
2.35691e-05
2.36924e-05
2.38181e-05
2.39461e-05
2.40761e-05
2.4208e-05
2.43413e-05
2.4476e-05
2.46117e-05
2.47482e-05
2.48851e-05
2.5022e-05
2.51586e-05
2.52945e-05
2.54292e-05
2.55621e-05
2.56927e-05
2.58205e-05
2.59446e-05
2.60645e-05
2.61795e-05
2.62891e-05
2.63919e-05
2.64876e-05
2.65746e-05
2.66526e-05
2.672e-05
2.6776e-05
2.68194e-05
2.68492e-05
2.68646e-05
2.68647e-05
2.68485e-05
2.68155e-05
2.67648e-05
2.66963e-05
2.66088e-05
2.65012e-05
2.63746e-05
2.62261e-05
2.6058e-05
2.58667e-05
2.56567e-05
2.54295e-05
2.47244e-05
2.44798e-05
2.42357e-05
2.39956e-05
2.3757e-05
2.35301e-05
2.33108e-05
2.31029e-05
2.2907e-05
2.27237e-05
2.25538e-05
2.23978e-05
2.22568e-05
2.21306e-05
2.20188e-05
2.19205e-05
2.18351e-05
2.17619e-05
2.17001e-05
2.16493e-05
2.16086e-05
2.15777e-05
2.15559e-05
2.15425e-05
2.15371e-05
2.15393e-05
2.15485e-05
2.15643e-05
2.15865e-05
2.16146e-05
2.16483e-05
2.16874e-05
2.17316e-05
2.17806e-05
2.18342e-05
2.18922e-05
2.19545e-05
2.2021e-05
2.20914e-05
2.21656e-05
2.22436e-05
2.23253e-05
2.24105e-05
2.24991e-05
2.2591e-05
2.2686e-05
2.27841e-05
2.28851e-05
2.29888e-05
2.30952e-05
2.32044e-05
2.33162e-05
2.34305e-05
2.35473e-05
2.36663e-05
2.37875e-05
2.39106e-05
2.40356e-05
2.41621e-05
2.42899e-05
2.44188e-05
2.45483e-05
2.46784e-05
2.48085e-05
2.49385e-05
2.50678e-05
2.51962e-05
2.53232e-05
2.54482e-05
2.55709e-05
2.56907e-05
2.58068e-05
2.59188e-05
2.60259e-05
2.61275e-05
2.62228e-05
2.63114e-05
2.63919e-05
2.6464e-05
2.65263e-05
2.65783e-05
2.66188e-05
2.66469e-05
2.66618e-05
2.66625e-05
2.66485e-05
2.6619e-05
2.65736e-05
2.6512e-05
2.64337e-05
2.63389e-05
2.62273e-05
2.60979e-05
2.59517e-05
2.57867e-05
2.56043e-05
2.54023e-05
2.51842e-05
2.49516e-05
2.42247e-05
2.39838e-05
2.37459e-05
2.35145e-05
2.32876e-05
2.30742e-05
2.28713e-05
2.26817e-05
2.25059e-05
2.23441e-05
2.21967e-05
2.20639e-05
2.19459e-05
2.18429e-05
2.17542e-05
2.16788e-05
2.1616e-05
2.1565e-05
2.15249e-05
2.14951e-05
2.14749e-05
2.14637e-05
2.14609e-05
2.14658e-05
2.1478e-05
2.1497e-05
2.15223e-05
2.15536e-05
2.15904e-05
2.16326e-05
2.16797e-05
2.17315e-05
2.17877e-05
2.18481e-05
2.19126e-05
2.19809e-05
2.2053e-05
2.21286e-05
2.22076e-05
2.229e-05
2.23756e-05
2.24644e-05
2.25561e-05
2.26508e-05
2.27483e-05
2.28484e-05
2.2951e-05
2.3056e-05
2.31633e-05
2.32727e-05
2.33843e-05
2.3498e-05
2.36137e-05
2.37313e-05
2.38505e-05
2.39712e-05
2.40932e-05
2.42162e-05
2.434e-05
2.44644e-05
2.4589e-05
2.47135e-05
2.48374e-05
2.49606e-05
2.50825e-05
2.52029e-05
2.53211e-05
2.54368e-05
2.55494e-05
2.56585e-05
2.57634e-05
2.58635e-05
2.59582e-05
2.60468e-05
2.61285e-05
2.62028e-05
2.6269e-05
2.63262e-05
2.63737e-05
2.64105e-05
2.64361e-05
2.64494e-05
2.64497e-05
2.64364e-05
2.64086e-05
2.63662e-05
2.63087e-05
2.62359e-05
2.61479e-05
2.6045e-05
2.59274e-05
2.57953e-05
2.56479e-05
2.54862e-05
2.53088e-05
2.51166e-05
2.4908e-05
2.46862e-05
2.44529e-05
2.3716e-05
2.3483e-05
2.32551e-05
2.30355e-05
2.2823e-05
2.26255e-05
2.24406e-05
2.22705e-05
2.21155e-05
2.19754e-05
2.18505e-05
2.17405e-05
2.16451e-05
2.15643e-05
2.14975e-05
2.14438e-05
2.14022e-05
2.13719e-05
2.13519e-05
2.13415e-05
2.13402e-05
2.13472e-05
2.13618e-05
2.13836e-05
2.14119e-05
2.14464e-05
2.14866e-05
2.1532e-05
2.15824e-05
2.16375e-05
2.16968e-05
2.17603e-05
2.18277e-05
2.18986e-05
2.19731e-05
2.20508e-05
2.21317e-05
2.22157e-05
2.23026e-05
2.23923e-05
2.24847e-05
2.25798e-05
2.26774e-05
2.27773e-05
2.28796e-05
2.29839e-05
2.30903e-05
2.31984e-05
2.33083e-05
2.34198e-05
2.3533e-05
2.36477e-05
2.37638e-05
2.3881e-05
2.39993e-05
2.41184e-05
2.4238e-05
2.43579e-05
2.44778e-05
2.45974e-05
2.47163e-05
2.48342e-05
2.49506e-05
2.50652e-05
2.51776e-05
2.52873e-05
2.53938e-05
2.54967e-05
2.55953e-05
2.56892e-05
2.57777e-05
2.58602e-05
2.59361e-05
2.60047e-05
2.60654e-05
2.61175e-05
2.61605e-05
2.61934e-05
2.62158e-05
2.62268e-05
2.62258e-05
2.62121e-05
2.61851e-05
2.61444e-05
2.60895e-05
2.60202e-05
2.59367e-05
2.58392e-05
2.57282e-05
2.56041e-05
2.54676e-05
2.5319e-05
2.51579e-05
2.49852e-05
2.47997e-05
2.46022e-05
2.43917e-05
2.41707e-05
2.39411e-05
2.32056e-05
2.29848e-05
2.277e-05
2.25651e-05
2.23693e-05
2.21895e-05
2.2024e-05
2.18741e-05
2.17402e-05
2.16219e-05
2.1519e-05
2.1431e-05
2.13573e-05
2.12976e-05
2.12514e-05
2.12179e-05
2.11959e-05
2.11846e-05
2.1183e-05
2.11906e-05
2.12064e-05
2.123e-05
2.12606e-05
2.12976e-05
2.13406e-05
2.13892e-05
2.14428e-05
2.15011e-05
2.15638e-05
2.16305e-05
2.1701e-05
2.17751e-05
2.18525e-05
2.19329e-05
2.20164e-05
2.21026e-05
2.21915e-05
2.22829e-05
2.23767e-05
2.24728e-05
2.25712e-05
2.26717e-05
2.27741e-05
2.28785e-05
2.29846e-05
2.30922e-05
2.32013e-05
2.33116e-05
2.34231e-05
2.35357e-05
2.36494e-05
2.3764e-05
2.38793e-05
2.39951e-05
2.41113e-05
2.42274e-05
2.43434e-05
2.44588e-05
2.45734e-05
2.46868e-05
2.47986e-05
2.49084e-05
2.50158e-05
2.51203e-05
2.52216e-05
2.5319e-05
2.54122e-05
2.55006e-05
2.55837e-05
2.56608e-05
2.57315e-05
2.5795e-05
2.58509e-05
2.58984e-05
2.5937e-05
2.5966e-05
2.59851e-05
2.59934e-05
2.59905e-05
2.59757e-05
2.59486e-05
2.59087e-05
2.58555e-05
2.57888e-05
2.57084e-05
2.56147e-05
2.55081e-05
2.53893e-05
2.5259e-05
2.51179e-05
2.49667e-05
2.4806e-05
2.46357e-05
2.44564e-05
2.42676e-05
2.40693e-05
2.38614e-05
2.36457e-05
2.34239e-05
2.27005e-05
2.24954e-05
2.22965e-05
2.21086e-05
2.19313e-05
2.17706e-05
2.16252e-05
2.1496e-05
2.13832e-05
2.12861e-05
2.12043e-05
2.11372e-05
2.10841e-05
2.10442e-05
2.10171e-05
2.10021e-05
2.09981e-05
2.10041e-05
2.10193e-05
2.1043e-05
2.10743e-05
2.11128e-05
2.11577e-05
2.12085e-05
2.12647e-05
2.13259e-05
2.13915e-05
2.14614e-05
2.1535e-05
2.16122e-05
2.16927e-05
2.17762e-05
2.18625e-05
2.19514e-05
2.20427e-05
2.21364e-05
2.22322e-05
2.233e-05
2.24298e-05
2.25314e-05
2.26347e-05
2.27396e-05
2.2846e-05
2.29537e-05
2.30626e-05
2.31725e-05
2.32833e-05
2.33947e-05
2.35067e-05
2.36193e-05
2.37324e-05
2.38457e-05
2.3959e-05
2.40722e-05
2.41849e-05
2.42968e-05
2.44077e-05
2.45173e-05
2.46251e-05
2.47308e-05
2.48339e-05
2.49341e-05
2.50309e-05
2.51238e-05
2.52123e-05
2.52961e-05
2.53744e-05
2.54469e-05
2.55129e-05
2.5572e-05
2.56235e-05
2.56669e-05
2.57017e-05
2.57272e-05
2.5743e-05
2.57485e-05
2.57434e-05
2.57271e-05
2.56992e-05
2.56592e-05
2.56069e-05
2.5542e-05
2.54642e-05
2.53736e-05
2.52704e-05
2.51554e-05
2.50294e-05
2.48932e-05
2.47477e-05
2.45939e-05
2.44325e-05
2.42644e-05
2.40895e-05
2.39083e-05
2.37206e-05
2.3526e-05
2.3325e-05
2.31186e-05
2.29084e-05
2.2207e-05
2.20202e-05
2.18393e-05
2.16701e-05
2.15126e-05
2.13717e-05
2.12468e-05
2.11381e-05
2.10458e-05
2.09691e-05
2.09074e-05
2.08599e-05
2.08259e-05
2.08043e-05
2.07947e-05
2.07966e-05
2.08087e-05
2.08304e-05
2.08606e-05
2.08987e-05
2.09439e-05
2.09956e-05
2.10532e-05
2.11162e-05
2.11841e-05
2.12564e-05
2.13327e-05
2.14128e-05
2.14961e-05
2.15825e-05
2.16717e-05
2.17634e-05
2.18575e-05
2.19537e-05
2.20519e-05
2.21519e-05
2.22536e-05
2.23568e-05
2.24615e-05
2.25675e-05
2.26747e-05
2.2783e-05
2.28922e-05
2.30022e-05
2.31128e-05
2.32238e-05
2.33351e-05
2.34465e-05
2.35579e-05
2.36693e-05
2.37805e-05
2.38913e-05
2.40014e-05
2.41105e-05
2.42184e-05
2.43247e-05
2.44292e-05
2.45314e-05
2.46309e-05
2.47274e-05
2.48204e-05
2.49095e-05
2.49941e-05
2.50738e-05
2.51482e-05
2.52167e-05
2.52788e-05
2.53339e-05
2.53817e-05
2.54215e-05
2.54529e-05
2.54752e-05
2.54882e-05
2.54912e-05
2.54838e-05
2.54657e-05
2.54367e-05
2.53962e-05
2.53441e-05
2.52802e-05
2.52042e-05
2.51162e-05
2.5016e-05
2.49043e-05
2.47817e-05
2.46492e-05
2.45078e-05
2.43586e-05
2.42025e-05
2.40405e-05
2.38736e-05
2.37028e-05
2.35279e-05
2.33493e-05
2.31671e-05
2.29805e-05
2.27902e-05
2.25967e-05
2.24011e-05
2.17299e-05
2.15634e-05
2.14021e-05
2.12527e-05
2.11155e-05
2.09947e-05
2.089e-05
2.08013e-05
2.07287e-05
2.06712e-05
2.06282e-05
2.05989e-05
2.05822e-05
2.05773e-05
2.05837e-05
2.06006e-05
2.06272e-05
2.06627e-05
2.07062e-05
2.0757e-05
2.08144e-05
2.08777e-05
2.09465e-05
2.10202e-05
2.10982e-05
2.11803e-05
2.12659e-05
2.13547e-05
2.14465e-05
2.15408e-05
2.16375e-05
2.17362e-05
2.18369e-05
2.19393e-05
2.20432e-05
2.21484e-05
2.22548e-05
2.23624e-05
2.24709e-05
2.25802e-05
2.26902e-05
2.28007e-05
2.29116e-05
2.30228e-05
2.31339e-05
2.32448e-05
2.33554e-05
2.34656e-05
2.35753e-05
2.36842e-05
2.37923e-05
2.38992e-05
2.40046e-05
2.41083e-05
2.421e-05
2.43093e-05
2.44058e-05
2.44992e-05
2.4589e-05
2.46748e-05
2.47561e-05
2.48325e-05
2.49036e-05
2.49687e-05
2.50275e-05
2.50794e-05
2.5124e-05
2.51607e-05
2.51891e-05
2.52088e-05
2.52192e-05
2.522e-05
2.52107e-05
2.51911e-05
2.51608e-05
2.51195e-05
2.50673e-05
2.50037e-05
2.49289e-05
2.48428e-05
2.47453e-05
2.46366e-05
2.4517e-05
2.43878e-05
2.42498e-05
2.41041e-05
2.39518e-05
2.3794e-05
2.36319e-05
2.34666e-05
2.32989e-05
2.31298e-05
2.29594e-05
2.27877e-05
2.26148e-05
2.24398e-05
2.22636e-05
2.20861e-05
2.19077e-05
2.12733e-05
2.1128e-05
2.09871e-05
2.0858e-05
2.07412e-05
2.06403e-05
2.05552e-05
2.04855e-05
2.04314e-05
2.03918e-05
2.0366e-05
2.0353e-05
2.0352e-05
2.03622e-05
2.03826e-05
2.04129e-05
2.04523e-05
2.04999e-05
2.0555e-05
2.06168e-05
2.06847e-05
2.07581e-05
2.08365e-05
2.09193e-05
2.10061e-05
2.10965e-05
2.119e-05
2.12864e-05
2.13852e-05
2.14862e-05
2.15891e-05
2.16937e-05
2.17998e-05
2.19071e-05
2.20155e-05
2.21248e-05
2.22349e-05
2.23456e-05
2.24567e-05
2.25682e-05
2.26798e-05
2.27914e-05
2.29028e-05
2.30139e-05
2.31243e-05
2.32339e-05
2.33427e-05
2.34504e-05
2.3557e-05
2.36622e-05
2.37657e-05
2.38674e-05
2.39668e-05
2.40637e-05
2.41578e-05
2.42485e-05
2.43357e-05
2.44188e-05
2.44973e-05
2.4571e-05
2.46393e-05
2.47016e-05
2.47577e-05
2.48069e-05
2.48489e-05
2.48831e-05
2.49091e-05
2.49265e-05
2.49348e-05
2.49337e-05
2.49229e-05
2.49019e-05
2.48706e-05
2.48287e-05
2.47761e-05
2.47127e-05
2.46386e-05
2.45537e-05
2.44582e-05
2.43522e-05
2.42359e-05
2.41097e-05
2.39746e-05
2.38321e-05
2.3683e-05
2.35286e-05
2.337e-05
2.32085e-05
2.30451e-05
2.28811e-05
2.27171e-05
2.25541e-05
2.23921e-05
2.2231e-05
2.20709e-05
2.19108e-05
2.17513e-05
2.1592e-05
2.14328e-05
2.08398e-05
2.07162e-05
2.0596e-05
2.0487e-05
2.03902e-05
2.03084e-05
2.02418e-05
2.019e-05
2.01529e-05
2.01295e-05
2.01192e-05
2.01209e-05
2.01338e-05
2.01572e-05
2.01901e-05
2.0232e-05
2.02823e-05
2.03404e-05
2.04054e-05
2.04766e-05
2.05535e-05
2.06354e-05
2.07219e-05
2.08124e-05
2.09065e-05
2.10038e-05
2.11039e-05
2.12064e-05
2.1311e-05
2.14174e-05
2.15254e-05
2.16346e-05
2.17449e-05
2.1856e-05
2.19677e-05
2.20799e-05
2.21924e-05
2.23051e-05
2.24177e-05
2.25301e-05
2.26421e-05
2.27535e-05
2.28642e-05
2.29739e-05
2.30823e-05
2.31894e-05
2.3295e-05
2.3399e-05
2.35012e-05
2.36013e-05
2.3699e-05
2.3794e-05
2.38861e-05
2.39747e-05
2.40597e-05
2.41405e-05
2.42168e-05
2.42882e-05
2.43542e-05
2.44143e-05
2.44682e-05
2.45153e-05
2.45551e-05
2.45874e-05
2.46115e-05
2.46271e-05
2.46338e-05
2.46313e-05
2.46192e-05
2.45972e-05
2.45652e-05
2.45228e-05
2.44701e-05
2.44069e-05
2.43333e-05
2.42494e-05
2.41553e-05
2.40514e-05
2.39378e-05
2.3815e-05
2.36832e-05
2.35436e-05
2.33974e-05
2.3246e-05
2.30905e-05
2.2932e-05
2.27719e-05
2.26113e-05
2.24512e-05
2.22928e-05
2.21366e-05
2.19836e-05
2.18336e-05
2.16863e-05
2.15418e-05
2.13989e-05
2.12581e-05
2.11186e-05
2.09796e-05
2.04313e-05
2.0329e-05
2.0229e-05
2.01397e-05
2.00619e-05
1.99982e-05
1.99488e-05
1.99133e-05
1.98916e-05
1.98828e-05
1.98861e-05
1.99006e-05
1.99257e-05
1.99604e-05
2.0004e-05
2.00559e-05
2.01156e-05
2.01825e-05
2.02557e-05
2.03348e-05
2.04191e-05
2.0508e-05
2.06011e-05
2.06979e-05
2.0798e-05
2.09008e-05
2.10061e-05
2.11135e-05
2.12226e-05
2.13331e-05
2.14448e-05
2.15574e-05
2.16707e-05
2.17843e-05
2.18982e-05
2.20121e-05
2.21258e-05
2.22392e-05
2.2352e-05
2.24641e-05
2.25753e-05
2.26853e-05
2.27939e-05
2.29009e-05
2.30061e-05
2.31094e-05
2.32106e-05
2.33096e-05
2.3406e-05
2.34996e-05
2.35901e-05
2.36771e-05
2.37603e-05
2.38394e-05
2.39139e-05
2.39834e-05
2.40475e-05
2.41059e-05
2.4158e-05
2.42034e-05
2.42417e-05
2.42724e-05
2.42951e-05
2.43095e-05
2.43151e-05
2.43116e-05
2.42987e-05
2.42761e-05
2.42437e-05
2.42011e-05
2.41485e-05
2.40857e-05
2.40127e-05
2.39298e-05
2.38371e-05
2.37349e-05
2.36235e-05
2.35035e-05
2.33751e-05
2.32391e-05
2.30958e-05
2.29472e-05
2.27945e-05
2.2639e-05
2.24818e-05
2.2324e-05
2.21669e-05
2.20116e-05
2.18591e-05
2.17102e-05
2.15655e-05
2.14257e-05
2.12905e-05
2.11595e-05
2.10326e-05
2.09086e-05
2.07878e-05
2.06688e-05
2.05506e-05
2.00483e-05
1.99664e-05
1.9886e-05
1.98153e-05
1.97552e-05
1.97082e-05
1.96745e-05
1.96536e-05
1.96455e-05
1.96494e-05
1.96646e-05
1.96902e-05
1.97255e-05
1.97698e-05
1.98225e-05
1.98827e-05
1.99501e-05
2.00241e-05
2.01041e-05
2.01895e-05
2.02797e-05
2.03743e-05
2.04726e-05
2.05742e-05
2.06788e-05
2.07859e-05
2.08951e-05
2.1006e-05
2.11183e-05
2.12318e-05
2.13459e-05
2.14607e-05
2.15756e-05
2.16906e-05
2.18053e-05
2.19197e-05
2.20334e-05
2.21462e-05
2.2258e-05
2.23685e-05
2.24775e-05
2.25847e-05
2.269e-05
2.2793e-05
2.28938e-05
2.2992e-05
2.30875e-05
2.31801e-05
2.32694e-05
2.33552e-05
2.34371e-05
2.35147e-05
2.35878e-05
2.36559e-05
2.37186e-05
2.37756e-05
2.38263e-05
2.38705e-05
2.39076e-05
2.39373e-05
2.39591e-05
2.39726e-05
2.39776e-05
2.39736e-05
2.39603e-05
2.39376e-05
2.39052e-05
2.38629e-05
2.38107e-05
2.37485e-05
2.36765e-05
2.35947e-05
2.35035e-05
2.3403e-05
2.32938e-05
2.31761e-05
2.30506e-05
2.2918e-05
2.27787e-05
2.26334e-05
2.24833e-05
2.23306e-05
2.2176e-05
2.20211e-05
2.18668e-05
2.17141e-05
2.15643e-05
2.14183e-05
2.1277e-05
2.1141e-05
2.10107e-05
2.08866e-05
2.07683e-05
2.06554e-05
2.05475e-05
2.04432e-05
2.03429e-05
2.02447e-05
2.01472e-05
1.96907e-05
1.9628e-05
1.9566e-05
1.95125e-05
1.94686e-05
1.94367e-05
1.94168e-05
1.94088e-05
1.94126e-05
1.94274e-05
1.94526e-05
1.94873e-05
1.95311e-05
1.95833e-05
1.96432e-05
1.97103e-05
1.97838e-05
1.98635e-05
1.99487e-05
2.00389e-05
2.01336e-05
2.02323e-05
2.03344e-05
2.04396e-05
2.05473e-05
2.06573e-05
2.07691e-05
2.08823e-05
2.09966e-05
2.11116e-05
2.1227e-05
2.13425e-05
2.1458e-05
2.1573e-05
2.16874e-05
2.18009e-05
2.19132e-05
2.20242e-05
2.21337e-05
2.22413e-05
2.23468e-05
2.24499e-05
2.25506e-05
2.26484e-05
2.27435e-05
2.28353e-05
2.29239e-05
2.30087e-05
2.30897e-05
2.31663e-05
2.32383e-05
2.33053e-05
2.3367e-05
2.34229e-05
2.34727e-05
2.3516e-05
2.35523e-05
2.35813e-05
2.36026e-05
2.36157e-05
2.36205e-05
2.36164e-05
2.36033e-05
2.35809e-05
2.35489e-05
2.35073e-05
2.3456e-05
2.3395e-05
2.33242e-05
2.3244e-05
2.31544e-05
2.30559e-05
2.29488e-05
2.28336e-05
2.27109e-05
2.25813e-05
2.24454e-05
2.23041e-05
2.2158e-05
2.20081e-05
2.18561e-05
2.17038e-05
2.15521e-05
2.14022e-05
2.1255e-05
2.11115e-05
2.09727e-05
2.08394e-05
2.07123e-05
2.05918e-05
2.0478e-05
2.03715e-05
2.02715e-05
2.01776e-05
2.00892e-05
2.0005e-05
1.9925e-05
1.98472e-05
1.97699e-05
1.93576e-05
1.93127e-05
1.92675e-05
1.92295e-05
1.92002e-05
1.91815e-05
1.91738e-05
1.91768e-05
1.91905e-05
1.92144e-05
1.92477e-05
1.92899e-05
1.93404e-05
1.93987e-05
1.94642e-05
1.95364e-05
1.96146e-05
1.96985e-05
1.97875e-05
1.98811e-05
1.99789e-05
2.00803e-05
2.01848e-05
2.02922e-05
2.04018e-05
2.05134e-05
2.06264e-05
2.07406e-05
2.08555e-05
2.09709e-05
2.10862e-05
2.12014e-05
2.1316e-05
2.14298e-05
2.15425e-05
2.16539e-05
2.17636e-05
2.18715e-05
2.19773e-05
2.20807e-05
2.21814e-05
2.22792e-05
2.2374e-05
2.24655e-05
2.25535e-05
2.26378e-05
2.2718e-05
2.27939e-05
2.28652e-05
2.29315e-05
2.29924e-05
2.30477e-05
2.30968e-05
2.31395e-05
2.31754e-05
2.32041e-05
2.32252e-05
2.32384e-05
2.32433e-05
2.32396e-05
2.32271e-05
2.32054e-05
2.31744e-05
2.3134e-05
2.3084e-05
2.30245e-05
2.29555e-05
2.28772e-05
2.27898e-05
2.26935e-05
2.25889e-05
2.24764e-05
2.23566e-05
2.22301e-05
2.20977e-05
2.196e-05
2.18179e-05
2.16722e-05
2.15236e-05
2.1374e-05
2.12248e-05
2.10775e-05
2.09328e-05
2.07919e-05
2.06556e-05
2.05247e-05
2.03999e-05
2.0282e-05
2.01712e-05
2.0068e-05
1.99722e-05
1.98842e-05
1.98032e-05
1.97285e-05
1.96596e-05
1.9595e-05
1.95346e-05
1.94764e-05
1.94181e-05
1.90476e-05
1.90186e-05
1.89886e-05
1.89644e-05
1.89478e-05
1.89405e-05
1.8943e-05
1.89551e-05
1.8977e-05
1.9008e-05
1.90477e-05
1.90956e-05
1.91511e-05
1.92138e-05
1.92833e-05
1.93591e-05
1.94405e-05
1.95272e-05
1.96186e-05
1.97142e-05
1.98137e-05
1.99164e-05
2.00221e-05
2.01303e-05
2.02405e-05
2.03524e-05
2.04654e-05
2.05793e-05
2.06936e-05
2.0808e-05
2.0922e-05
2.10355e-05
2.1148e-05
2.12593e-05
2.13691e-05
2.1477e-05
2.15829e-05
2.16864e-05
2.17872e-05
2.1885e-05
2.19797e-05
2.2071e-05
2.21587e-05
2.22426e-05
2.23225e-05
2.23979e-05
2.24687e-05
2.25345e-05
2.2595e-05
2.26499e-05
2.26987e-05
2.27412e-05
2.2777e-05
2.28057e-05
2.2827e-05
2.28405e-05
2.2846e-05
2.2843e-05
2.28314e-05
2.28109e-05
2.27813e-05
2.27425e-05
2.26944e-05
2.26369e-05
2.25702e-05
2.24943e-05
2.24095e-05
2.23161e-05
2.22144e-05
2.2105e-05
2.19884e-05
2.18653e-05
2.17364e-05
2.16025e-05
2.14643e-05
2.13228e-05
2.11787e-05
2.1033e-05
2.08867e-05
2.07419e-05
2.05998e-05
2.04615e-05
2.03276e-05
2.01992e-05
2.00768e-05
1.9961e-05
1.98525e-05
1.97516e-05
1.96587e-05
1.95737e-05
1.94966e-05
1.94273e-05
1.93651e-05
1.93093e-05
1.92592e-05
1.92134e-05
1.91715e-05
1.91314e-05
1.9091e-05
1.87589e-05
1.87441e-05
1.87273e-05
1.87151e-05
1.87091e-05
1.87114e-05
1.87222e-05
1.87416e-05
1.87698e-05
1.88062e-05
1.88505e-05
1.89023e-05
1.89612e-05
1.90267e-05
1.90986e-05
1.91764e-05
1.92595e-05
1.93476e-05
1.944e-05
1.95364e-05
1.96362e-05
1.97391e-05
1.98446e-05
1.99523e-05
2.00618e-05
2.01727e-05
2.02845e-05
2.03968e-05
2.05092e-05
2.06213e-05
2.07328e-05
2.08433e-05
2.09524e-05
2.10599e-05
2.11655e-05
2.12688e-05
2.13694e-05
2.14672e-05
2.15618e-05
2.1653e-05
2.17405e-05
2.18242e-05
2.19037e-05
2.19789e-05
2.20495e-05
2.2115e-05
2.21753e-05
2.223e-05
2.22788e-05
2.23213e-05
2.23572e-05
2.23862e-05
2.2408e-05
2.24222e-05
2.24285e-05
2.24267e-05
2.24164e-05
2.23975e-05
2.23697e-05
2.2333e-05
2.22872e-05
2.22322e-05
2.21683e-05
2.20954e-05
2.20138e-05
2.19237e-05
2.18256e-05
2.17198e-05
2.1607e-05
2.14877e-05
2.13627e-05
2.12328e-05
2.10988e-05
2.09615e-05
2.08219e-05
2.06808e-05
2.05391e-05
2.03977e-05
2.02582e-05
2.01224e-05
1.99911e-05
1.98651e-05
1.9745e-05
1.96316e-05
1.95253e-05
1.94265e-05
1.93356e-05
1.92528e-05
1.91782e-05
1.91117e-05
1.9053e-05
1.90021e-05
1.89581e-05
1.89202e-05
1.88878e-05
1.88595e-05
1.88346e-05
1.88111e-05
1.87868e-05
1.84894e-05
1.84868e-05
1.84813e-05
1.84792e-05
1.8482e-05
1.84919e-05
1.85092e-05
1.8534e-05
1.85667e-05
1.86068e-05
1.8654e-05
1.87081e-05
1.87687e-05
1.88355e-05
1.89083e-05
1.89866e-05
1.907e-05
1.9158e-05
1.92501e-05
1.93459e-05
1.94448e-05
1.95465e-05
1.96506e-05
1.97566e-05
1.98642e-05
1.99728e-05
2.0082e-05
2.01915e-05
2.03008e-05
2.04094e-05
2.05171e-05
2.06234e-05
2.07279e-05
2.08304e-05
2.09305e-05
2.10278e-05
2.11221e-05
2.1213e-05
2.13003e-05
2.13837e-05
2.14631e-05
2.15381e-05
2.16084e-05
2.16739e-05
2.17341e-05
2.17889e-05
2.18378e-05
2.18806e-05
2.19169e-05
2.19465e-05
2.1969e-05
2.19842e-05
2.19917e-05
2.19913e-05
2.19827e-05
2.19657e-05
2.19401e-05
2.19059e-05
2.18628e-05
2.18109e-05
2.17502e-05
2.16808e-05
2.1603e-05
2.15168e-05
2.14228e-05
2.13213e-05
2.12129e-05
2.10981e-05
2.09777e-05
2.08523e-05
2.07229e-05
2.05902e-05
2.04553e-05
2.03189e-05
2.01821e-05
2.00455e-05
1.99103e-05
1.97772e-05
1.96485e-05
1.9525e-05
1.94074e-05
1.92963e-05
1.91921e-05
1.90955e-05
1.90066e-05
1.89257e-05
1.88529e-05
1.87883e-05
1.87319e-05
1.86834e-05
1.86425e-05
1.86089e-05
1.85819e-05
1.85607e-05
1.85445e-05
1.85319e-05
1.85223e-05
1.85137e-05
1.85036e-05
1.82369e-05
1.82446e-05
1.82485e-05
1.82545e-05
1.82643e-05
1.82799e-05
1.83019e-05
1.83303e-05
1.83657e-05
1.84078e-05
1.84563e-05
1.8511e-05
1.85718e-05
1.86385e-05
1.87107e-05
1.87881e-05
1.88703e-05
1.89569e-05
1.90474e-05
1.91412e-05
1.92381e-05
1.93374e-05
1.94388e-05
1.95419e-05
1.96463e-05
1.97514e-05
1.98569e-05
1.99624e-05
2.00673e-05
2.01712e-05
2.02738e-05
2.03747e-05
2.04735e-05
2.05698e-05
2.06632e-05
2.07535e-05
2.08402e-05
2.09233e-05
2.10023e-05
2.10771e-05
2.11473e-05
2.12127e-05
2.1273e-05
2.13279e-05
2.13771e-05
2.14203e-05
2.14573e-05
2.14876e-05
2.15112e-05
2.15275e-05
2.15364e-05
2.15377e-05
2.15311e-05
2.15164e-05
2.14934e-05
2.1462e-05
2.14221e-05
2.13737e-05
2.13168e-05
2.12514e-05
2.11778e-05
2.10963e-05
2.1007e-05
2.09104e-05
2.0807e-05
2.06974e-05
2.05822e-05
2.04621e-05
2.03379e-05
2.02105e-05
2.00807e-05
1.99495e-05
1.98177e-05
1.96863e-05