/*--------------------------------*- C++ -*----------------------------------*\
| =========                 |                                                 |
| \\      /  F ield         | OpenFOAM: The Open Source CFD Toolbox           |
|  \\    /   O peration     | Version:  2306                                  |
|   \\  /    A nd           | Website:  www.openfoam.com                      |
|    \\/     M anipulation  |                                                 |
\*---------------------------------------------------------------------------*/
// * * * * * * * * * * * * * * * * * * * * * * * * * * * * * * * * * * * * * //
FoamFile
{
    version         2;
    format          ascii;
    class           volScalarField;
    location        "2977.26";
    object          nut;
}

dimensions      [ 0 2 -1 0 0 0 0 ];

internalField   nonuniform List<scalar> 
14751
(
1.46913e-05
1.45703e-05
1.44587e-05
1.43808e-05
1.43138e-05
1.42769e-05
1.42558e-05
1.42561e-05
1.42767e-05
1.43167e-05
1.43768e-05
1.44565e-05
1.45555e-05
1.4673e-05
1.48084e-05
1.49601e-05
1.51272e-05
1.53078e-05
1.55007e-05
1.57046e-05
1.59181e-05
1.61397e-05
1.63683e-05
1.6602e-05
1.68395e-05
1.70797e-05
1.73212e-05
1.75629e-05
1.78037e-05
1.80426e-05
1.82788e-05
1.85114e-05
1.87397e-05
1.89631e-05
1.9181e-05
1.93929e-05
1.95985e-05
1.97973e-05
1.99888e-05
2.0173e-05
2.03498e-05
2.05185e-05
2.06787e-05
2.08301e-05
2.09722e-05
2.1105e-05
2.12282e-05
2.13415e-05
2.14447e-05
2.15374e-05
2.16195e-05
2.16908e-05
2.1751e-05
2.17999e-05
2.18372e-05
2.18628e-05
2.18763e-05
2.18776e-05
2.18666e-05
2.1843e-05
2.18063e-05
2.17566e-05
2.1694e-05
2.1619e-05
2.15318e-05
2.14323e-05
2.13207e-05
2.11973e-05
2.10628e-05
2.09172e-05
2.07611e-05
2.05948e-05
2.04189e-05
2.02338e-05
2.004e-05
1.9838e-05
1.96296e-05
1.94142e-05
1.91932e-05
1.8966e-05
1.87339e-05
1.84978e-05
1.82584e-05
1.80168e-05
1.77731e-05
1.75295e-05
1.72867e-05
1.70458e-05
1.68084e-05
1.65752e-05
1.63483e-05
1.6129e-05
1.59159e-05
1.57134e-05
1.55167e-05
1.53317e-05
1.51516e-05
1.49821e-05
1.48137e-05
1.79669e-05
1.78419e-05
1.77254e-05
1.76548e-05
1.75973e-05
1.75778e-05
1.75782e-05
1.76046e-05
1.76553e-05
1.77285e-05
1.78248e-05
1.79435e-05
1.80837e-05
1.82441e-05
1.84237e-05
1.86204e-05
1.88329e-05
1.90592e-05
1.92975e-05
1.95464e-05
1.98041e-05
2.00689e-05
2.03397e-05
2.06144e-05
2.08914e-05
2.11698e-05
2.14478e-05
2.17245e-05
2.19985e-05
2.2269e-05
2.25351e-05
2.27961e-05
2.3051e-05
2.32995e-05
2.35408e-05
2.37746e-05
2.40005e-05
2.42182e-05
2.44271e-05
2.46274e-05
2.48187e-05
2.50008e-05
2.5173e-05
2.53354e-05
2.54873e-05
2.56288e-05
2.57594e-05
2.58791e-05
2.59874e-05
2.6084e-05
2.61689e-05
2.6242e-05
2.63027e-05
2.6351e-05
2.63865e-05
2.6409e-05
2.64183e-05
2.64142e-05
2.63965e-05
2.63649e-05
2.6319e-05
2.62588e-05
2.61844e-05
2.6096e-05
2.59938e-05
2.58778e-05
2.57482e-05
2.56052e-05
2.54493e-05
2.5281e-05
2.51003e-05
2.49079e-05
2.47042e-05
2.44897e-05
2.42648e-05
2.403e-05
2.37871e-05
2.35355e-05
2.32768e-05
2.30103e-05
2.27376e-05
2.24597e-05
2.2177e-05
2.18913e-05
2.16025e-05
2.13131e-05
2.10242e-05
2.07369e-05
2.04533e-05
2.01744e-05
1.99026e-05
1.964e-05
1.93847e-05
1.91431e-05
1.89096e-05
1.86921e-05
1.84825e-05
1.82907e-05
1.80998e-05
2.15413e-05
2.14084e-05
2.12922e-05
2.12334e-05
2.11954e-05
2.12046e-05
2.12393e-05
2.1306e-05
2.1402e-05
2.15246e-05
2.16741e-05
2.18493e-05
2.20491e-05
2.22714e-05
2.25146e-05
2.27762e-05
2.30545e-05
2.33468e-05
2.3651e-05
2.39654e-05
2.42878e-05
2.46163e-05
2.49493e-05
2.52846e-05
2.56204e-05
2.59555e-05
2.62881e-05
2.66172e-05
2.69413e-05
2.72597e-05
2.75713e-05
2.78753e-05
2.81711e-05
2.8458e-05
2.87356e-05
2.90032e-05
2.92609e-05
2.95081e-05
2.97445e-05
2.99701e-05
3.01846e-05
3.0388e-05
3.05799e-05
3.076e-05
3.09279e-05
3.10835e-05
3.12266e-05
3.13568e-05
3.14739e-05
3.15774e-05
3.16676e-05
3.17441e-05
3.18065e-05
3.18546e-05
3.18881e-05
3.19068e-05
3.19103e-05
3.18984e-05
3.18709e-05
3.18276e-05
3.1768e-05
3.16919e-05
3.15993e-05
3.14904e-05
3.13654e-05
3.1224e-05
3.10667e-05
3.08934e-05
3.07048e-05
3.05011e-05
3.02825e-05
3.00496e-05
2.98028e-05
2.95426e-05
2.92694e-05
2.89838e-05
2.86875e-05
2.83799e-05
2.80629e-05
2.7736e-05
2.74009e-05
2.70585e-05
2.67098e-05
2.63566e-05
2.59993e-05
2.56406e-05
2.52819e-05
2.49249e-05
2.45722e-05
2.4225e-05
2.38865e-05
2.35588e-05
2.3241e-05
2.29405e-05
2.26521e-05
2.23853e-05
2.21321e-05
2.19046e-05
2.16866e-05
2.52924e-05
2.51531e-05
2.50455e-05
2.50071e-05
2.50014e-05
2.50525e-05
2.51366e-05
2.52601e-05
2.54185e-05
2.56085e-05
2.58296e-05
2.60805e-05
2.63592e-05
2.66631e-05
2.69901e-05
2.73368e-05
2.77011e-05
2.80796e-05
2.84699e-05
2.88696e-05
2.92762e-05
2.96875e-05
3.01014e-05
3.05154e-05
3.09275e-05
3.13364e-05
3.174e-05
3.21372e-05
3.25265e-05
3.29071e-05
3.32778e-05
3.36379e-05
3.39867e-05
3.43235e-05
3.46481e-05
3.49598e-05
3.52585e-05
3.55441e-05
3.5816e-05
3.60743e-05
3.63189e-05
3.65497e-05
3.67665e-05
3.69692e-05
3.71572e-05
3.73304e-05
3.74886e-05
3.76316e-05
3.77589e-05
3.78702e-05
3.79657e-05
3.80451e-05
3.81079e-05
3.81539e-05
3.81827e-05
3.81941e-05
3.81877e-05
3.81632e-05
3.81203e-05
3.80588e-05
3.79781e-05
3.78781e-05
3.77586e-05
3.76195e-05
3.7461e-05
3.7283e-05
3.70858e-05
3.68692e-05
3.6634e-05
3.63802e-05
3.61083e-05
3.58186e-05
3.55117e-05
3.5188e-05
3.48481e-05
3.44926e-05
3.41234e-05
3.37398e-05
3.33439e-05
3.29356e-05
3.25169e-05
3.20888e-05
3.16527e-05
3.12108e-05
3.0764e-05
3.03154e-05
2.9867e-05
2.94211e-05
2.89806e-05
2.85474e-05
2.81255e-05
2.7717e-05
2.73221e-05
2.69495e-05
2.65946e-05
2.62684e-05
2.59634e-05
2.56938e-05
2.54487e-05
2.91577e-05
2.90179e-05
2.89294e-05
2.89222e-05
2.8963e-05
2.9072e-05
2.92217e-05
2.94189e-05
2.96575e-05
2.9933e-05
3.02446e-05
3.05898e-05
3.09664e-05
3.13709e-05
3.18005e-05
3.2251e-05
3.27197e-05
3.32025e-05
3.36964e-05
3.41987e-05
3.47063e-05
3.52164e-05
3.57268e-05
3.62343e-05
3.6737e-05
3.72331e-05
3.77206e-05
3.81981e-05
3.86641e-05
3.91176e-05
3.95575e-05
3.99831e-05
4.03937e-05
4.07886e-05
4.11676e-05
4.153e-05
4.1876e-05
4.22054e-05
4.25176e-05
4.28129e-05
4.30911e-05
4.33525e-05
4.35966e-05
4.38236e-05
4.40328e-05
4.4224e-05
4.43972e-05
4.4552e-05
4.46882e-05
4.48053e-05
4.49034e-05
4.49823e-05
4.50415e-05
4.50807e-05
4.50994e-05
4.50975e-05
4.50744e-05
4.50299e-05
4.49636e-05
4.48752e-05
4.47641e-05
4.46301e-05
4.44728e-05
4.4292e-05
4.4088e-05
4.38608e-05
4.36103e-05
4.33365e-05
4.30403e-05
4.27216e-05
4.23808e-05
4.20184e-05
4.16349e-05
4.12311e-05
4.08073e-05
4.03647e-05
3.99051e-05
3.94279e-05
3.89357e-05
3.84284e-05
3.79089e-05
3.7378e-05
3.6838e-05
3.62913e-05
3.57394e-05
3.51864e-05
3.46344e-05
3.40865e-05
3.35464e-05
3.30166e-05
3.25015e-05
3.20036e-05
3.15246e-05
3.10739e-05
3.06476e-05
3.02587e-05
2.99e-05
2.95881e-05
2.932e-05
3.31109e-05
3.29797e-05
3.29227e-05
3.29601e-05
3.30626e-05
3.32454e-05
3.34783e-05
3.37677e-05
3.4104e-05
3.44833e-05
3.49033e-05
3.53609e-05
3.58529e-05
3.63753e-05
3.69243e-05
3.74951e-05
3.80841e-05
3.86863e-05
3.92984e-05
3.9917e-05
4.05386e-05
4.11599e-05
4.17785e-05
4.23902e-05
4.29936e-05
4.35864e-05
4.41665e-05
4.47322e-05
4.52822e-05
4.58153e-05
4.63304e-05
4.68268e-05
4.73039e-05
4.7761e-05
4.81978e-05
4.8614e-05
4.90097e-05
4.93845e-05
4.97384e-05
5.00714e-05
5.03834e-05
5.06748e-05
5.09454e-05
5.1195e-05
5.14232e-05
5.16299e-05
5.18148e-05
5.19778e-05
5.21184e-05
5.22365e-05
5.23317e-05
5.24041e-05
5.24532e-05
5.24784e-05
5.24795e-05
5.24561e-05
5.24077e-05
5.23339e-05
5.22344e-05
5.21089e-05
5.19565e-05
5.17771e-05
5.15702e-05
5.13357e-05
5.10737e-05
5.07842e-05
5.04672e-05
5.01228e-05
4.97517e-05
4.93541e-05
4.89303e-05
4.84809e-05
4.80065e-05
4.75081e-05
4.69862e-05
4.64423e-05
4.58783e-05
4.52939e-05
4.46921e-05
4.40731e-05
4.34404e-05
4.2795e-05
4.21401e-05
4.14782e-05
4.0812e-05
4.0146e-05
3.9483e-05
3.8827e-05
3.8182e-05
3.75514e-05
3.69403e-05
3.63512e-05
3.57872e-05
3.52587e-05
3.47623e-05
3.4313e-05
3.39041e-05
3.35547e-05
3.3271e-05
3.71476e-05
3.70369e-05
3.70257e-05
3.71227e-05
3.73032e-05
3.75768e-05
3.79103e-05
3.831e-05
3.87632e-05
3.92633e-05
3.98087e-05
4.03954e-05
4.10188e-05
4.16743e-05
4.23573e-05
4.30619e-05
4.3784e-05
4.45174e-05
4.52588e-05
4.60037e-05
4.67485e-05
4.74894e-05
4.82235e-05
4.89463e-05
4.96562e-05
5.03508e-05
5.10279e-05
5.16856e-05
5.23226e-05
5.29378e-05
5.35301e-05
5.40987e-05
5.4643e-05
5.51625e-05
5.5657e-05
5.61261e-05
5.65701e-05
5.69889e-05
5.73821e-05
5.77501e-05
5.80928e-05
5.84107e-05
5.87036e-05
5.89714e-05
5.92136e-05
5.94301e-05
5.96208e-05
5.97856e-05
5.9924e-05
6.00358e-05
6.01205e-05
6.01783e-05
6.02086e-05
6.0211e-05
6.01851e-05
6.01304e-05
6.00465e-05
5.99331e-05
5.97896e-05
5.96157e-05
5.94107e-05
5.91742e-05
5.89059e-05
5.86056e-05
5.82733e-05
5.79093e-05
5.75136e-05
5.70862e-05
5.6628e-05
5.61391e-05
5.56202e-05
5.50719e-05
5.4495e-05
5.38906e-05
5.32596e-05
5.26039e-05
5.19255e-05
5.12244e-05
5.05042e-05
4.97653e-05
4.90122e-05
4.82457e-05
4.74702e-05
4.66885e-05
4.59042e-05
4.51226e-05
4.43471e-05
4.35823e-05
4.28331e-05
4.21033e-05
4.1399e-05
4.07225e-05
4.0078e-05
3.94762e-05
3.89156e-05
3.84125e-05
3.79617e-05
3.75841e-05
3.72946e-05
4.12779e-05
4.12015e-05
4.12517e-05
4.1425e-05
4.17005e-05
4.20824e-05
4.25342e-05
4.30616e-05
4.36491e-05
4.42881e-05
4.49745e-05
4.57048e-05
4.64735e-05
4.72749e-05
4.81035e-05
4.89525e-05
4.98171e-05
5.06902e-05
5.1568e-05
5.24456e-05
5.33188e-05
5.41836e-05
5.50366e-05
5.58729e-05
5.66912e-05
5.74887e-05
5.82631e-05
5.90127e-05
5.9736e-05
6.0432e-05
6.10995e-05
6.1738e-05
6.23467e-05
6.29255e-05
6.3474e-05
6.39921e-05
6.448e-05
6.49377e-05
6.53652e-05
6.57626e-05
6.61301e-05
6.64682e-05
6.67767e-05
6.70556e-05
6.73044e-05
6.75231e-05
6.77116e-05
6.78697e-05
6.79972e-05
6.80936e-05
6.81585e-05
6.81921e-05
6.81937e-05
6.81631e-05
6.80996e-05
6.80032e-05
6.78729e-05
6.77088e-05
6.75101e-05
6.72766e-05
6.70075e-05
6.67025e-05
6.63614e-05
6.5984e-05
6.55703e-05
6.51207e-05
6.46352e-05
6.41142e-05
6.35584e-05
6.29683e-05
6.23446e-05
6.1688e-05
6.09999e-05
6.02813e-05
5.95336e-05
5.87592e-05
5.79602e-05
5.71371e-05
5.62939e-05
5.54314e-05
5.4555e-05
5.36657e-05
5.27688e-05
5.18676e-05
5.09665e-05
5.00716e-05
4.91869e-05
4.83178e-05
4.74699e-05
4.66474e-05
4.58571e-05
4.51001e-05
4.43831e-05
4.37174e-05
4.31025e-05
4.25562e-05
4.20748e-05
4.16817e-05
4.13984e-05
4.55212e-05
4.5494e-05
4.56222e-05
4.58893e-05
4.62774e-05
4.67853e-05
4.73728e-05
4.80449e-05
4.87829e-05
4.95764e-05
5.04185e-05
5.13049e-05
5.223e-05
5.31872e-05
5.41699e-05
5.51706e-05
5.61836e-05
5.7201e-05
5.82188e-05
5.92314e-05
6.02344e-05
6.12234e-05
6.21949e-05
6.31436e-05
6.40682e-05
6.4966e-05
6.58346e-05
6.66723e-05
6.74777e-05
6.82498e-05
6.89875e-05
6.96903e-05
7.03577e-05
7.09895e-05
7.15856e-05
7.21458e-05
7.26705e-05
7.31599e-05
7.36139e-05
7.40329e-05
7.44171e-05
7.47669e-05
7.50823e-05
7.53633e-05
7.56096e-05
7.5821e-05
7.59976e-05
7.61394e-05
7.6246e-05
7.63167e-05
7.63513e-05
7.635e-05
7.63123e-05
7.62378e-05
7.6126e-05
7.59766e-05
7.57891e-05
7.55632e-05
7.52984e-05
7.49944e-05
7.46504e-05
7.42663e-05
7.38419e-05
7.33771e-05
7.28721e-05
7.23273e-05
7.17429e-05
7.11194e-05
7.04579e-05
6.97588e-05
6.90231e-05
6.82519e-05
6.74466e-05
6.66087e-05
6.57401e-05
6.48434e-05
6.39214e-05
6.29746e-05
6.20077e-05
6.1022e-05
6.00236e-05
5.90139e-05
5.7999e-05
5.69827e-05
5.59703e-05
5.49687e-05
5.39824e-05
5.30177e-05
5.20807e-05
5.11752e-05
5.03083e-05
4.94824e-05
4.8705e-05
4.79879e-05
4.73316e-05
4.67556e-05
4.62573e-05
4.58636e-05
4.56e-05
4.99038e-05
4.9941e-05
5.01645e-05
5.05433e-05
5.10614e-05
5.17126e-05
5.24523e-05
5.32847e-05
5.41874e-05
5.51485e-05
5.61592e-05
5.72113e-05
5.8301e-05
5.94205e-05
6.05624e-05
6.17184e-05
6.28821e-05
6.40448e-05
6.52023e-05
6.63485e-05
6.74791e-05
6.85891e-05
6.96751e-05
7.07313e-05
7.17571e-05
7.27492e-05
7.37057e-05
7.46246e-05
7.55049e-05
7.63456e-05
7.71457e-05
7.79048e-05
7.86225e-05
7.92988e-05
7.99336e-05
8.05269e-05
8.10794e-05
8.15911e-05
8.20621e-05
8.2493e-05
8.28839e-05
8.32355e-05
8.35477e-05
8.38205e-05
8.40538e-05
8.42475e-05
8.44016e-05
8.45164e-05
8.45913e-05
8.46251e-05
8.46185e-05
8.45714e-05
8.44834e-05
8.4354e-05
8.41829e-05
8.39699e-05
8.37144e-05
8.34162e-05
8.30749e-05
8.26902e-05
8.22615e-05
8.17887e-05
8.12717e-05
8.07108e-05
8.01062e-05
7.94585e-05
7.87679e-05
7.80354e-05
7.7262e-05
7.64486e-05
7.55963e-05
7.47066e-05
7.37813e-05
7.28221e-05
7.18313e-05
7.08123e-05
6.97679e-05
6.86993e-05
6.76117e-05
6.65067e-05
6.53913e-05
6.42673e-05
6.31415e-05
6.20183e-05
6.09039e-05
5.98059e-05
5.87294e-05
5.76812e-05
5.66663e-05
5.56904e-05
5.47608e-05
5.38805e-05
5.30573e-05
5.23038e-05
5.16212e-05
5.10306e-05
5.0531e-05
5.01522e-05
4.9924e-05
5.44561e-05
5.45729e-05
5.49087e-05
5.54166e-05
5.60813e-05
5.68918e-05
5.77988e-05
5.88051e-05
5.98847e-05
6.10236e-05
6.22114e-05
6.34372e-05
6.46959e-05
6.59807e-05
6.72834e-05
6.85945e-05
6.99076e-05
7.12129e-05
7.25062e-05
7.37813e-05
7.50336e-05
7.62581e-05
7.74513e-05
7.86074e-05
7.97259e-05
8.08038e-05
8.1839e-05
8.28299e-05
8.37754e-05
8.46748e-05
8.55273e-05
8.63325e-05
8.70903e-05
8.78006e-05
8.84635e-05
8.90794e-05
8.96488e-05
9.01719e-05
9.06492e-05
9.1081e-05
9.14677e-05
9.181e-05
9.21078e-05
9.23613e-05
9.25704e-05
9.27352e-05
9.28558e-05
9.29324e-05
9.29641e-05
9.29501e-05
9.28912e-05
9.27874e-05
9.26382e-05
9.24433e-05
9.22025e-05
9.19156e-05
9.15821e-05
9.12019e-05
9.07747e-05
9.03002e-05
8.97782e-05
8.92086e-05
8.85915e-05
8.79274e-05
8.72166e-05
8.646e-05
8.56582e-05
8.48121e-05
8.39232e-05
8.29926e-05
8.20218e-05
8.10126e-05
7.9967e-05
7.88873e-05
7.77763e-05
7.66378e-05
7.5475e-05
7.42896e-05
7.30874e-05
7.18705e-05
7.06464e-05
6.94175e-05
6.81914e-05
6.69729e-05
6.57692e-05
6.45883e-05
6.34354e-05
6.23168e-05
6.12394e-05
6.02091e-05
5.92333e-05
5.8315e-05
5.74626e-05
5.66894e-05
5.59971e-05
5.54087e-05
5.49242e-05
5.45768e-05
5.44001e-05
5.92117e-05
5.94219e-05
5.98863e-05
6.05396e-05
6.13659e-05
6.23499e-05
6.34367e-05
6.4628e-05
6.58935e-05
6.72173e-05
6.85872e-05
6.99911e-05
7.14194e-05
7.28688e-05
7.43299e-05
7.57926e-05
7.72498e-05
7.86916e-05
8.01137e-05
8.15095e-05
8.28747e-05
8.42042e-05
8.54947e-05
8.67402e-05
8.79407e-05
8.90932e-05
9.01959e-05
9.12473e-05
9.22465e-05
9.3193e-05
9.40861e-05
9.49257e-05
9.57116e-05
9.64441e-05
9.71234e-05
9.775e-05
9.83245e-05
9.88473e-05
9.93189e-05
9.97399e-05
0.000100111
0.000100432
0.000100704
0.000100927
0.0001011
0.000101225
0.0001013
0.000101328
0.000101305
0.000101232
0.00010111
0.000100939
0.000100719
0.000100448
0.000100128
9.97578e-05
9.93373e-05
9.88665e-05
9.83452e-05
9.77735e-05
9.71509e-05
9.6478e-05
9.57549e-05
9.49823e-05
9.41609e-05
9.32916e-05
9.23755e-05
9.14137e-05
9.0408e-05
8.93599e-05
8.82711e-05
8.71439e-05
8.59807e-05
8.47842e-05
8.35577e-05
8.23055e-05
8.10313e-05
7.97374e-05
7.84298e-05
7.71112e-05
7.57899e-05
7.44688e-05
7.31559e-05
7.18568e-05
7.05793e-05
6.93309e-05
6.8117e-05
6.69455e-05
6.58235e-05
6.47567e-05
6.37529e-05
6.28148e-05
6.19512e-05
6.11761e-05
6.04916e-05
5.99225e-05
5.94699e-05
5.91702e-05
5.90614e-05
6.42029e-05
6.45207e-05
6.51281e-05
6.59412e-05
6.69419e-05
6.81105e-05
6.93869e-05
7.07707e-05
7.22277e-05
7.37396e-05
7.52928e-05
7.68738e-05
7.84705e-05
8.00797e-05
8.16931e-05
8.33001e-05
8.48931e-05
8.6462e-05
8.80025e-05
8.95082e-05
9.09747e-05
9.23972e-05
9.37725e-05
9.50949e-05
9.63645e-05
9.75788e-05
9.8736e-05
9.98348e-05
0.000100875
0.000101855
0.000102776
0.000103637
0.000104438
0.00010518
0.000105863
0.000106488
0.000107055
0.000107565
0.000108019
0.000108417
0.00010876
0.000109048
0.000109283
0.000109463
0.000109589
0.000109663
0.000109683
0.000109649
0.000109561
0.000109419
0.000109224
0.000108977
0.000108675
0.00010832
0.000107912
0.00010745
0.000106935
0.000106367
0.000105745
0.000105069
0.000104341
0.00010356
0.000102727
0.000101843
0.000100908
9.99245e-05
9.88933e-05
9.7816e-05
9.66948e-05
9.55312e-05
9.43277e-05
9.30867e-05
9.18113e-05
9.05046e-05
8.91702e-05
8.78131e-05
8.64374e-05
8.50459e-05
8.36452e-05
8.22384e-05
8.08343e-05
7.94363e-05
7.80533e-05
7.66911e-05
7.53566e-05
7.4058e-05
7.28023e-05
7.15974e-05
7.04502e-05
6.93666e-05
6.83541e-05
6.74154e-05
6.65593e-05
6.58004e-05
6.51414e-05
6.46086e-05
6.42043e-05
6.39681e-05
6.39427e-05
6.94633e-05
6.99007e-05
7.06631e-05
7.16476e-05
7.28322e-05
7.41934e-05
7.56653e-05
7.72453e-05
7.88952e-05
8.05945e-05
8.23282e-05
8.40815e-05
8.58416e-05
8.76018e-05
8.9358e-05
9.10986e-05
9.2816e-05
9.44996e-05
9.61456e-05
9.77477e-05
9.93017e-05
0.000100803
0.000102249
0.000103634
0.000104958
0.00010622
0.000107418
0.00010855
0.000109616
0.000110617
0.000111552
0.00011242
0.000113223
0.000113962
0.000114635
0.000115245
0.000115792
0.000116277
0.000116701
0.000117064
0.000117367
0.00011761
0.000117796
0.000117922
0.000117991
0.000118002
0.000117956
0.000117851
0.000117688
0.000117468
0.000117191
0.000116857
0.000116467
0.00011602
0.000115516
0.000114956
0.00011434
0.000113668
0.00011294
0.000112157
0.00011132
0.000110428
0.000109482
0.000108485
0.000107437
0.00010634
0.000105196
0.000104006
0.000102772
0.000101498
0.000100186
9.88382e-05
9.74587e-05
9.6051e-05
9.46194e-05
9.3169e-05
9.17048e-05
9.02297e-05
8.87509e-05
8.72721e-05
8.58025e-05
8.4346e-05
8.29119e-05
8.15051e-05
8.01327e-05
7.88048e-05
7.75281e-05
7.63107e-05
7.51592e-05
7.40792e-05
7.3078e-05
7.21581e-05
7.13283e-05
7.06035e-05
6.99869e-05
6.95066e-05
6.91657e-05
6.90073e-05
6.90791e-05
7.5024e-05
7.55907e-05
7.65167e-05
7.76807e-05
7.90549e-05
8.06125e-05
8.22818e-05
8.40575e-05
8.58975e-05
8.77793e-05
8.96864e-05
9.16034e-05
9.35171e-05
9.54174e-05
9.73036e-05
9.91642e-05
0.000100992
0.000102775
0.000104511
0.000106194
0.00010782
0.000109385
0.000110886
0.000112318
0.000113682
0.000114975
0.000116198
0.000117348
0.000118427
0.000119433
0.000120367
0.00012123
0.000122021
0.000122742
0.000123393
0.000123975
0.00012449
0.000124937
0.000125318
0.000125635
0.000125886
0.000126074
0.000126199
0.000126262
0.000126263
0.000126202
0.000126079
0.000125893
0.000125646
0.000125339
0.000124972
0.000124546
0.000124059
0.000123513
0.000122909
0.000122245
0.000121524
0.000120744
0.000119908
0.000119015
0.000118066
0.000117063
0.000116006
0.000114897
0.000113738
0.000112531
0.000111277
0.000109979
0.00010864
0.000107263
0.00010585
0.000104406
0.000102933
0.000101437
9.99214e-05
9.83925e-05
9.68553e-05
9.53136e-05
9.37748e-05
9.2243e-05
9.07278e-05
8.92334e-05
8.77689e-05
8.63377e-05
8.49498e-05
8.36147e-05
8.23393e-05
8.11311e-05
7.99966e-05
7.8941e-05
7.79711e-05
7.7089e-05
7.63033e-05
7.56294e-05
7.50708e-05
7.4657e-05
7.43926e-05
7.43241e-05
7.45045e-05
8.09129e-05
8.1615e-05
8.27093e-05
8.40568e-05
8.56223e-05
8.73755e-05
8.92396e-05
9.12061e-05
9.32291e-05
9.52843e-05
9.73541e-05
9.94224e-05
0.000101476
0.000103503
0.000105503
0.000107468
0.000109389
0.000111255
0.000113065
0.000114812
0.000116493
0.000118104
0.000119643
0.000121105
0.000122492
0.000123802
0.000125034
0.000126187
0.000127263
0.00012826
0.00012918
0.000130023
0.000130788
0.000131479
0.000132094
0.000132636
0.000133106
0.000133504
0.000133831
0.000134089
0.000134278
0.0001344
0.000134455
0.000134444
0.000134367
0.000134225
0.000134016
0.000133742
0.000133404
0.000133003
0.00013254
0.000132014
0.000131426
0.000130777
0.000130067
0.000129297
0.000128467
0.000127579
0.000126633
0.000125629
0.00012457
0.000123457
0.000122291
0.000121074
0.000119808
0.000118496
0.00011714
0.000115743
0.000114308
0.000112838
0.000111336
0.000109808
0.000108256
0.000106686
0.000105103
0.000103513
0.000101922
0.000100333
9.87552e-05
9.71919e-05
9.56536e-05
9.41446e-05
9.26702e-05
9.12384e-05
8.98583e-05
8.85393e-05
8.72877e-05
8.61109e-05
8.50146e-05
8.40036e-05
8.30839e-05
8.22572e-05
8.15318e-05
8.09234e-05
8.04359e-05
8.01002e-05
7.99224e-05
7.99527e-05
8.02505e-05
8.71525e-05
8.7993e-05
8.92558e-05
9.07861e-05
9.25398e-05
9.44835e-05
9.65353e-05
9.86832e-05
0.000100878
0.000103093
0.000105311
0.000107515
0.000109692
0.000111831
0.000113926
0.000115976
0.000117972
0.000119904
0.000121768
0.000123561
0.000125279
0.000126918
0.000128478
0.000129954
0.000131348
0.000132658
0.000133884
0.000135025
0.000136083
0.000137057
0.000137948
0.000138757
0.000139484
0.000140131
0.000140699
0.000141188
0.000141601
0.000141939
0.000142201
0.000142391
0.000142508
0.000142554
0.00014253
0.000142437
0.000142274
0.000142041
0.00014174
0.000141371
0.000140936
0.000140435
0.00013987
0.000139241
0.000138548
0.000137793
0.000136975
0.000136097
0.000135159
0.000134162
0.000133107
0.000131996
0.000130829
0.00012961
0.00012834
0.000127021
0.000125656
0.000124248
0.000122799
0.000121313
0.000119794
0.000118245
0.000116669
0.000115072
0.000113459
0.000111834
0.000110203
0.000108573
0.000106949
0.000105336
0.000103741
0.000102171
0.000100634
9.9132e-05
9.76729e-05
9.62649e-05
9.49168e-05
9.36372e-05
9.2432e-05
9.13079e-05
9.027e-05
8.9322e-05
8.84697e-05
8.77136e-05
8.70619e-05
8.65307e-05
8.6124e-05
8.58744e-05
8.57896e-05
8.59241e-05
8.63442e-05
9.37599e-05
9.47372e-05
9.61639e-05
9.78719e-05
9.98062e-05
0.000101931
0.000104158
0.000106474
0.000108825
0.000111185
0.000113533
0.000115854
0.000118136
0.000120366
0.000122539
0.000124654
0.000126705
0.000128682
0.000130582
0.000132402
0.000134138
0.000135788
0.000137352
0.000138824
0.000140208
0.000141502
0.000142706
0.000143821
0.000144846
0.000145783
0.000146632
0.000147394
0.00014807
0.000148662
0.00014917
0.000149597
0.000149942
0.000150209
0.000150397
0.000150509
0.000150545
0.000150507
0.000150396
0.000150213
0.000149956
0.000149627
0.000149227
0.000148759
0.000148222
0.000147618
0.000146948
0.000146214
0.000145414
0.000144552
0.000143627
0.000142641
0.000141596
0.000140493
0.000139333
0.000138118
0.000136851
0.000135533
0.000134166
0.000132755
0.000131301
0.000129808
0.000128279
0.000126719
0.00012513
0.000123518
0.000121887
0.000120241
0.000118586
0.000116927
0.00011527
0.000113623
0.000111991
0.000110378
0.000108794
0.000107241
0.000105731
0.000104261
0.000102843
0.000101483
0.000100191
9.89733e-05
9.78358e-05
9.6784e-05
9.58223e-05
9.49535e-05
9.41823e-05
9.35088e-05
9.29406e-05
9.24941e-05
9.21739e-05
9.2014e-05
9.20243e-05
9.2264e-05
9.28076e-05
0.000100745
0.000101854
0.000103435
0.000105311
0.000107414
0.000109705
0.000112093
0.000114559
0.000117049
0.000119532
0.000121991
0.000124408
0.000126773
0.000129074
0.000131306
0.000133464
0.000135549
0.000137551
0.000139467
0.000141295
0.000143031
0.000144674
0.000146224
0.000147676
0.000149034
0.000150297
0.000151465
0.000152538
0.000153517
0.000154404
0.000155198
0.000155901
0.000156515
0.00015704
0.000157478
0.000157831
0.0001581
0.000158286
0.000158392
0.000158418
0.000158366
0.000158238
0.000158033
0.000157753
0.000157396
0.000156967
0.000156465
0.000155893
0.000155252
0.000154543
0.000153768
0.000152927
0.000152022
0.000151053
0.000150023
0.000148934
0.000147786
0.000146581
0.000145323
0.000144012
0.000142652
0.000141245
0.000139793
0.000138301
0.000136772
0.000135209
0.000133617
0.000131999
0.00013036
0.000128705
0.000127038
0.000125366
0.000123693
0.000122025
0.000120368
0.00011873
0.000117116
0.000115531
0.000113983
0.000112477
0.000111016
0.000109605
0.000108253
0.000106966
0.000105752
0.000104617
0.000103566
0.000102603
0.000101732
0.000100955
0.000100275
9.96913e-05
9.92118e-05
9.88528e-05
9.86198e-05
9.85484e-05
9.86511e-05
9.89918e-05
9.9653e-05
0.000108112
0.000109341
0.000111064
0.000113092
0.000115348
0.000117788
0.000120318
0.000122914
0.00012552
0.000128105
0.000130652
0.000133143
0.000135568
0.000137918
0.000140187
0.000142369
0.000144467
0.000146473
0.000148386
0.000150202
0.00015192
0.000153539
0.000155058
0.000156474
0.000157791
0.000159008
0.000160125
0.000161143
0.000162064
0.000162887
0.000163615
0.000164249
0.000164789
0.000165238
0.000165597
0.000165868
0.000166052
0.000166151
0.000166166
0.0001661
0.000165954
0.000165729
0.000165425
0.000165043
0.000164584
0.000164051
0.000163446
0.00016277
0.000162024
0.00016121
0.00016033
0.000159386
0.000158377
0.000157307
0.000156177
0.000154989
0.000153745
0.000152448
0.0001511
0.000149704
0.000148262
0.000146779
0.000145257
0.0001437
0.000142112
0.000140497
0.000138861
0.000137206
0.00013554
0.000133865
0.000132188
0.000130515
0.00012885
0.0001272
0.000125571
0.00012397
0.000122404
0.000120875
0.000119392
0.000117958
0.000116573
0.000115246
0.000113983
0.000112791
0.000111675
0.00011064
0.000109691
0.00010883
0.00010806
0.000107381
0.000106797
0.000106305
0.000105914
0.00010564
0.00010549
0.000105501
0.000105688
0.00010612
0.000106889
0.000115857
0.000117192
0.000119038
0.000121202
0.00012359
0.000126158
0.000128807
0.00013151
0.000134209
0.000136873
0.000139483
0.000142024
0.000144487
0.000146863
0.000149147
0.000151334
0.000153423
0.000155413
0.000157303
0.00015909
0.000160772
0.000162349
0.000163821
0.000165187
0.000166448
0.000167605
0.000168658
0.00016961
0.000170459
0.000171209
0.000171861
0.000172414
0.000172873
0.000173237
0.000173508
0.000173689
0.000173782
0.000173787
0.000173708
0.000173545
0.0001733
0.000172974
0.000172567
0.000172081
0.000171519
0.000170882
0.000170173
0.000169393
0.000168545
0.000167629
0.000166648
0.000165604
0.000164498
0.000163333
0.00016211
0.000160833
0.000159503
0.000158125
0.0001567
0.000155232
0.000153725
0.000152181
0.000150606
0.000149004
0.000147378
0.000145734
0.000144076
0.00014241
0.000140741
0.000139074
0.000137415
0.000135769
0.000134142
0.00013254
0.000130969
0.000129436
0.000127946
0.000126503
0.000125115
0.000123774
0.000122492
0.000121271
0.00012012
0.00011904
0.000118038
0.000117117
0.000116279
0.000115527
0.000114862
0.000114283
0.000113793
0.00011339
0.000113081
0.000112884
0.000112806
0.000112887
0.000113145
0.000113656
0.000114517
0.000123971
0.000125394
0.000127342
0.000129619
0.000132118
0.000134789
0.000137533
0.000140319
0.000143085
0.000145802
0.000148451
0.000151019
0.000153495
0.000155874
0.000158151
0.000160322
0.000162385
0.000164339
0.000166187
0.000167927
0.000169556
0.000171076
0.000172487
0.000173787
0.000174979
0.000176064
0.000177042
0.000177915
0.000178685
0.000179351
0.000179917
0.000180383
0.000180751
0.000181023
0.000181202
0.000181288
0.000181284
0.000181191
0.000181013
0.00018075
0.000180403
0.000179973
0.000179462
0.000178874
0.000178209
0.00017747
0.00017666
0.00017578
0.000174833
0.000173821
0.000172746
0.000171609
0.000170415
0.000169164
0.000167859
0.000166505
0.000165103
0.000163658
0.000162172
0.00016065
0.000159096
0.000157513
0.000155907
0.000154282
0.000152642
0.000150995
0.000149343
0.000147694
0.000146052
0.000144422
0.000142812
0.000141225
0.000139668
0.000138146
0.000136665
0.00013523
0.000133847
0.000132518
0.000131247
0.000130026
0.000128867
0.000127773
0.000126749
0.000125796
0.000124917
0.000124117
0.000123394
0.000122752
0.000122189
0.000121706
0.000121302
0.000120977
0.000120738
0.000120603
0.000120581
0.000120715
0.000121028
0.000121598
0.000122533
0.000132441
0.000133928
0.000135956
0.000138321
0.000140906
0.000143656
0.000146469
0.00014931
0.000152118
0.000154863
0.000157526
0.000160095
0.000162562
0.000164921
0.00016717
0.000169304
0.000171324
0.000173225
0.000175014
0.000176689
0.00017825
0.000179699
0.000181034
0.000182256
0.000183368
0.000184369
0.000185262
0.000186048
0.000186728
0.000187303
0.000187776
0.000188147
0.00018842
0.000188596
0.000188676
0.000188663
0.00018856
0.000188368
0.000188089
0.000187723
0.000187272
0.00018674
0.000186127
0.000185438
0.000184674
0.000183838
0.000182932
0.000181959
0.000180921
0.00017982
0.00017866
0.000177442
0.00017617
0.000174847
0.000173476
0.00017206
0.000170603
0.00016911
0.000167584
0.000166029
0.00016445
0.000162853
0.000161241
0.00015962
0.000157997
0.000156375
0.000154761
0.000153159
0.000151577
0.000150019
0.00014849
0.000146996
0.000145542
0.000144133
0.000142773
0.000141467
0.000140219
0.000139031
0.000137896
0.000136816
0.000135799
0.000134845
0.000133958
0.000133138
0.000132387
0.000131707
0.000131097
0.000130558
0.000130088
0.000129687
0.000129355
0.000129091
0.000128903
0.00012881
0.000128824
0.000128989
0.000129333
0.000129941
0.000130927
0.00014125
0.000142776
0.000144857
0.000147285
0.00014993
0.000152732
0.000155587
0.000158457
0.00016128
0.000164027
0.00016668
0.000169227
0.000171661
0.000173979
0.000176179
0.000178258
0.000180216
0.000182051
0.000183764
0.000185359
0.000186838
0.000188202
0.00018945
0.000190583
0.000191604
0.000192513
0.000193312
0.000194003
0.000194586
0.000195064
0.000195439
0.000195712
0.000195885
0.00019596
0.000195941
0.000195828
0.000195624
0.000195331
0.000194949
0.000194482
0.000193931
0.000193299
0.00019259
0.000191806
0.000190949
0.000190023
0.000189029
0.000187972
0.000186853
0.000185676
0.000184443
0.000183159
0.000181825
0.000180447
0.000179027
0.000177569
0.000176079
0.00017456
0.000173018
0.000171456
0.000169881
0.000168297
0.00016671
0.000165126
0.00016355
0.000161988
0.000160445
0.000158928
0.000157441
0.000155989
0.000154578
0.000153211
0.000151894
0.000150629
0.00014942
0.000148271
0.000147183
0.000146154
0.000145174
0.000144249
0.000143385
0.000142579
0.000141833
0.000141146
0.000140518
0.00013995
0.000139441
0.00013899
0.000138596
0.000138258
0.000137976
0.00013775
0.000137588
0.000137511
0.000137535
0.000137705
0.000138055
0.000138673
0.000139685
0.000150382
0.000151918
0.000154025
0.000156488
0.000159167
0.000161993
0.000164863
0.000167735
0.000170548
0.000173272
0.000175891
0.000178393
0.000180773
0.000183029
0.000185161
0.000187166
0.000189046
0.000190798
0.000192426
0.00019393
0.000195314
0.000196581
0.000197732
0.000198767
0.000199688
0.000200498
0.000201197
0.000201786
0.000202269
0.000202645
0.000202919
0.00020309
0.000203162
0.000203137
0.000203017
0.000202805
0.0002025
0.000202107
0.000201626
0.000201062
0.000200416
0.000199692
0.000198893
0.000198022
0.000197082
0.000196076
0.000195007
0.000193878
0.000192693
0.000191454
0.000190167
0.000188833
0.000187458
0.000186045
0.000184599
0.000183125
0.000181627
0.00018011
0.00017858
0.000177042
0.000175502
0.000173965
0.000172438
0.000170925
0.000169433
0.000167968
0.000166534
0.000165138
0.000163783
0.000162475
0.000161216
0.000160011
0.000158862
0.000157771