/*--------------------------------*- C++ -*----------------------------------*\
  =========                 |
  \\      /  F ield         | OpenFOAM: The Open Source CFD Toolbox
   \\    /   O peration     | Website:  https://openfoam.org
    \\  /    A nd           | Version:  7
     \\/     M anipulation  |
\*---------------------------------------------------------------------------*/
FoamFile
{
    version     2.0;
    format      ascii;
    class       volScalarField;
    location    "2977.26";
    object      p;
}
// * * * * * * * * * * * * * * * * * * * * * * * * * * * * * * * * * * * * * //

dimensions      [0 2 -2 0 0 0 0];

internalField   nonuniform List<scalar> 
14751
(
6.58698e-19
3.04906e-06
7.37737e-06
1.14852e-05
1.6126e-05
2.08944e-05
2.57921e-05
3.07975e-05
3.58067e-05
4.07915e-05
4.56938e-05
5.0478e-05
5.51026e-05
5.95345e-05
6.37553e-05
6.77335e-05
7.1472e-05
7.49424e-05
7.81575e-05
8.11027e-05
8.37911e-05
8.62156e-05
8.83954e-05
9.03216e-05
9.2017e-05
9.34804e-05
9.47281e-05
9.57652e-05
9.66046e-05
9.72543e-05
9.77244e-05
9.80236e-05
9.81609e-05
9.8144e-05
9.79814e-05
9.76788e-05
9.72449e-05
9.66843e-05
9.60035e-05
9.52077e-05
9.4301e-05
9.32892e-05
9.21742e-05
9.09624e-05
8.96542e-05
8.82553e-05
8.67662e-05
8.51917e-05
8.3532e-05
8.1791e-05
7.99693e-05
7.80702e-05
7.6094e-05
7.40439e-05
7.19202e-05
6.97266e-05
6.74628e-05
6.51329e-05
6.27366e-05
6.02788e-05
5.77588e-05
5.5182e-05
5.25491e-05
4.98649e-05
4.71317e-05
4.43539e-05
4.15357e-05
3.86804e-05
3.57958e-05
3.28847e-05
2.99556e-05
2.70134e-05
2.40672e-05
2.11241e-05
1.81941e-05
1.52837e-05
1.24159e-05
9.58172e-06
6.82282e-06
4.11987e-06
1.5277e-06
-9.71352e-07
-3.32818e-06
-5.53942e-06
-7.57493e-06
-9.40599e-06
-1.10114e-05
-1.23608e-05
-1.34216e-05
-1.4177e-05
-1.45833e-05
-1.46215e-05
-1.4312e-05
-1.35262e-05
-1.24451e-05
-1.07813e-05
-8.92764e-06
-6.32823e-06
-3.94527e-06
7.29114e-09
3.05581e-06
7.38097e-06
1.14857e-05
1.61238e-05
2.08892e-05
2.57846e-05
3.07875e-05
3.57945e-05
4.07773e-05
4.56778e-05
5.04603e-05
5.50834e-05
5.9514e-05
6.37338e-05
6.77111e-05
7.14489e-05
7.49189e-05
7.81337e-05
8.10787e-05
8.37672e-05
8.61917e-05
8.83718e-05
9.02984e-05
9.19942e-05
9.34582e-05
9.47065e-05
9.57443e-05
9.65844e-05
9.72349e-05
9.77058e-05
9.80058e-05
9.8144e-05
9.81279e-05
9.79662e-05
9.76644e-05
9.72313e-05
9.66716e-05
9.59916e-05
9.51966e-05
9.42907e-05
9.32797e-05
9.21655e-05
9.09546e-05
8.96472e-05
8.82491e-05
8.67608e-05
8.51871e-05
8.35282e-05
8.17881e-05
7.99673e-05
7.8069e-05
7.60937e-05
7.40444e-05
7.19217e-05
6.9729e-05
6.74661e-05
6.51372e-05
6.27418e-05
6.02851e-05
5.7766e-05
5.51902e-05
5.25584e-05
4.98753e-05
4.71432e-05
4.43664e-05
4.15493e-05
3.8695e-05
3.58114e-05
3.29014e-05
2.99733e-05
2.70322e-05
2.40869e-05
2.11448e-05
1.82158e-05
1.53063e-05
1.24394e-05
9.60604e-06
6.84792e-06
4.14574e-06
1.55416e-06
-9.44332e-07
-3.30076e-06
-5.51166e-06
-7.54701e-06
-9.37807e-06
-1.09836e-05
-1.23334e-05
-1.33947e-05
-1.41508e-05
-1.45582e-05
-1.45976e-05
-1.42895e-05
-1.35053e-05
-1.24259e-05
-1.0764e-05
-8.9122e-06
-6.31409e-06
-3.93337e-06
1.23574e-08
3.05924e-06
7.38157e-06
1.14829e-05
1.61183e-05
2.0881e-05
2.57742e-05
3.07751e-05
3.57805e-05
4.07617e-05
4.56608e-05
5.04421e-05
5.50641e-05
5.94939e-05
6.3713e-05
6.76898e-05
7.14272e-05
7.48969e-05
7.81116e-05
8.10566e-05
8.37451e-05
8.61698e-05
8.83501e-05
9.02771e-05
9.19735e-05
9.3438e-05
9.4687e-05
9.57255e-05
9.65663e-05
9.72176e-05
9.76893e-05
9.79901e-05
9.81291e-05
9.81138e-05
9.7953e-05
9.7652e-05
9.72197e-05
9.66608e-05
9.59816e-05
9.51873e-05
9.42822e-05
9.32721e-05
9.21586e-05
9.09484e-05
8.96418e-05
8.82444e-05
8.67569e-05
8.51839e-05
8.35258e-05
8.17865e-05
7.99664e-05
7.80689e-05
7.60943e-05
7.40459e-05
7.1924e-05
6.97321e-05
6.747e-05
6.51419e-05
6.27474e-05
6.02916e-05
5.77734e-05
5.51986e-05
5.25677e-05
4.98854e-05
4.71543e-05
4.43784e-05
4.15623e-05
3.8709e-05
3.58264e-05
3.29174e-05
2.99902e-05
2.705e-05
2.41057e-05
2.11645e-05
1.82364e-05
1.53278e-05
1.24617e-05
9.62912e-06
6.87173e-06
4.17018e-06
1.57912e-06
-9.19004e-07
-3.27519e-06
-5.48597e-06
-7.52136e-06
-9.35262e-06
-1.09585e-05
-1.23087e-05
-1.33707e-05
-1.41277e-05
-1.45362e-05
-1.45768e-05
-1.42701e-05
-1.34873e-05
-1.24097e-05
-1.07495e-05
-8.8997e-06
-6.30283e-06
-3.92538e-06
1.60948e-08
3.06039e-06
7.37983e-06
1.14778e-05
1.61101e-05
2.08703e-05
2.57614e-05
3.07606e-05
3.57645e-05
4.07446e-05
4.56425e-05
5.04228e-05
5.50439e-05
5.9473e-05
6.36916e-05
6.7668e-05
7.14052e-05
7.48747e-05
7.80892e-05
8.10341e-05
8.37227e-05
8.61475e-05
8.8328e-05
9.02554e-05
9.19522e-05
9.34173e-05
9.4667e-05
9.57062e-05
9.65477e-05
9.71998e-05
9.76724e-05
9.79741e-05
9.81139e-05
9.80995e-05
9.79395e-05
9.76395e-05
9.7208e-05
9.665e-05
9.59716e-05
9.51782e-05
9.42739e-05
9.32646e-05
9.2152e-05
9.09426e-05
8.96367e-05
8.82402e-05
8.67535e-05
8.51813e-05
8.3524e-05
8.17855e-05
7.99662e-05
7.80696e-05
7.60958e-05
7.40482e-05
7.19272e-05
6.97362e-05
6.7475e-05
6.51478e-05
6.27542e-05
6.02993e-05
5.77821e-05
5.52083e-05
5.25784e-05
4.98972e-05
4.7167e-05
4.43922e-05
4.15771e-05
3.87249e-05
3.58433e-05
3.29353e-05
3.00092e-05
2.707e-05
2.41267e-05
2.11865e-05
1.82593e-05
1.53516e-05
1.24864e-05
9.65454e-06
6.89787e-06
4.19683e-06
1.60618e-06
-8.91754e-07
-3.2479e-06
-5.45884e-06
-7.49457e-06
-9.32631e-06
-1.09328e-05
-1.22839e-05
-1.33467e-05
-1.41049e-05
-1.45147e-05
-1.45566e-05
-1.42516e-05
-1.34703e-05
-1.23947e-05
-1.07362e-05
-8.88862e-06
-6.29325e-06
-3.91996e-06
1.91423e-08
3.05987e-06
7.3761e-06
1.14703e-05
1.60992e-05
2.08569e-05
2.57455e-05
3.0743e-05
3.57456e-05
4.07243e-05
4.56211e-05
5.04004e-05
5.50207e-05
5.94491e-05
6.36672e-05
6.76433e-05
7.13803e-05
7.48495e-05
7.80639e-05
8.10087e-05
8.36972e-05
8.61221e-05
8.83029e-05
9.02306e-05
9.1928e-05
9.33937e-05
9.4644e-05
9.5684e-05
9.65265e-05
9.71795e-05
9.7653e-05
9.79557e-05
9.80966e-05
9.80832e-05
9.79242e-05
9.76252e-05
9.71947e-05
9.66377e-05
9.59603e-05
9.5168e-05
9.42647e-05
9.32563e-05
9.21446e-05
9.09362e-05
8.96313e-05
8.82357e-05
8.675e-05
8.51788e-05
8.35225e-05
8.17849e-05
7.99667e-05
7.8071e-05
7.60983e-05
7.40517e-05
7.19317e-05
6.97418e-05
6.74816e-05
6.51556e-05
6.27631e-05
6.03093e-05
5.77933e-05
5.52206e-05
5.25919e-05
4.99119e-05
4.71829e-05
4.44094e-05
4.15955e-05
3.87444e-05
3.58641e-05
3.29573e-05
3.00324e-05
2.70943e-05
2.41522e-05
2.12131e-05
1.8287e-05
1.53802e-05
1.2516e-05
9.68495e-06
6.92901e-06
4.22841e-06
1.63811e-06
-8.59796e-07
-3.21611e-06
-5.42745e-06
-7.4638e-06
-9.29633e-06
-1.09038e-05
-1.2256e-05
-1.33202e-05
-1.40799e-05
-1.44913e-05
-1.45349e-05
-1.42319e-05
-1.34524e-05
-1.23792e-05
-1.07227e-05
-8.87763e-06
-6.2842e-06
-3.91609e-06
2.11598e-08
3.05708e-06
7.36984e-06
1.14602e-05
1.60852e-05
2.08403e-05
2.57263e-05
3.0722e-05
3.57231e-05
4.07007e-05
4.55963e-05
5.03747e-05
5.49942e-05
5.9422e-05
6.36397e-05
6.76155e-05
7.13522e-05
7.48213e-05
7.80355e-05
8.09802e-05
8.36688e-05
8.60938e-05
8.82749e-05
9.02029e-05
9.19008e-05
9.33672e-05
9.46184e-05
9.56593e-05
9.65028e-05
9.71568e-05
9.76314e-05
9.79352e-05
9.80773e-05
9.8065e-05
9.79072e-05
9.76094e-05
9.71801e-05
9.66242e-05
9.5948e-05
9.51568e-05
9.42546e-05
9.32474e-05
9.21369e-05
9.09296e-05
8.96258e-05
8.82314e-05
8.67468e-05
8.51767e-05
8.35216e-05
8.17851e-05
7.9968e-05
7.80735e-05
7.6102e-05
7.40566e-05
7.19378e-05
6.97491e-05
6.74902e-05
6.51655e-05
6.27743e-05
6.03218e-05
5.78071e-05
5.52358e-05
5.26084e-05
4.99298e-05
4.72023e-05
4.44301e-05
4.16176e-05
3.87679e-05
3.58889e-05
3.29835e-05
3.00599e-05
2.71231e-05
2.41822e-05
2.12443e-05
1.83194e-05
1.54136e-05
1.25504e-05
9.72015e-06
6.96492e-06
4.26467e-06
1.6746e-06
-8.23459e-07
-3.18015e-06
-5.39216e-06
-7.42945e-06
-9.26311e-06
-1.08719e-05
-1.22256e-05
-1.32915e-05
-1.40532e-05
-1.44665e-05
-1.45123e-05
-1.42116e-05
-1.34341e-05
-1.23637e-05
-1.07095e-05
-8.86718e-06
-6.27617e-06
-3.91432e-06
2.1574e-08
3.05126e-06
7.36043e-06
1.14467e-05
1.60676e-05
2.082e-05
2.57034e-05
3.06974e-05
3.56971e-05
4.06733e-05
4.5568e-05
5.03455e-05
5.49643e-05
5.93917e-05
6.36091e-05
6.75847e-05
7.13214e-05
7.47904e-05
7.80045e-05
8.09492e-05
8.36379e-05
8.6063e-05
8.82444e-05
9.0173e-05
9.18715e-05
9.33387e-05
9.45908e-05
9.56327e-05
9.64772e-05
9.71324e-05
9.76083e-05
9.79134e-05
9.80567e-05
9.80457e-05
9.78892e-05
9.75927e-05
9.71647e-05
9.66102e-05
9.59353e-05
9.51453e-05
9.42444e-05
9.32385e-05
9.21292e-05
9.09232e-05
8.96207e-05
8.82275e-05
8.67442e-05
8.51755e-05
8.35216e-05
8.17865e-05
7.99706e-05
7.80774e-05
7.61072e-05
7.40632e-05
7.19458e-05
6.97585e-05
6.7501e-05
6.51776e-05
6.27879e-05
6.03369e-05
5.78237e-05
5.52539e-05
5.2628e-05
4.9951e-05
4.72249e-05
4.44542e-05
4.16432e-05
3.8795e-05
3.59175e-05
3.30135e-05
3.00913e-05
2.71559e-05
2.42163e-05
2.12797e-05
1.83558e-05
1.54511e-05
1.25889e-05
9.75937e-06
7.00479e-06
4.30475e-06
1.71475e-06
-7.83676e-07
-3.14099e-06
-5.35397e-06
-7.39254e-06
-9.22766e-06
-1.08381e-05
-1.21938e-05
-1.32617e-05
-1.40258e-05
-1.44414e-05
-1.44896e-05
-1.41917e-05
-1.34166e-05
-1.23491e-05
-1.06975e-05
-8.85806e-06
-6.26996e-06
-3.91548e-06
1.98141e-08
3.04173e-06
7.34727e-06
1.14294e-05
1.6046e-05
2.07957e-05
2.56763e-05
3.06687e-05
3.56671e-05
4.06423e-05
4.5536e-05
5.03128e-05
5.49311e-05
5.93582e-05
6.35756e-05
6.75512e-05
7.1288e-05
7.4757e-05
7.79713e-05
8.09161e-05
8.36049e-05
8.60303e-05
8.82122e-05
9.01412e-05
9.18405e-05
9.33086e-05
9.45618e-05
9.56048e-05
9.64505e-05
9.7107e-05
9.75842e-05
9.78907e-05
9.80354e-05
9.80258e-05
9.78708e-05
9.75757e-05
9.71491e-05
9.6596e-05
9.59225e-05
9.5134e-05
9.42345e-05
9.323e-05
9.21221e-05
9.09175e-05
8.96164e-05
8.82246e-05
8.67427e-05
8.51754e-05
8.35229e-05
8.17892e-05
7.99748e-05
7.8083e-05
7.61143e-05
7.40718e-05
7.19559e-05
6.97701e-05
6.75142e-05
6.51923e-05
6.28042e-05
6.03547e-05
5.78432e-05
5.52749e-05
5.26507e-05
4.99753e-05
4.72508e-05
4.44817e-05
4.16723e-05
3.88257e-05
3.59497e-05
3.30471e-05
3.01264e-05
2.71924e-05
2.42541e-05
2.13187e-05
1.83959e-05
1.54923e-05
1.2631e-05
9.80207e-06
7.04801e-06
4.348e-06
1.75787e-06
-7.41165e-07
-3.0994e-06
-5.31367e-06
-7.35386e-06
-9.19081e-06
-1.08033e-05
-1.21613e-05
-1.32316e-05
-1.39985e-05
-1.44169e-05
-1.44679e-05
-1.4173e-05
-1.34006e-05
-1.23363e-05
-1.06876e-05
-8.851e-06
-6.26631e-06
-3.9203e-06
1.52569e-08
3.02777e-06
7.32971e-06
1.14077e-05
1.60198e-05
2.07668e-05
2.56448e-05
3.06357e-05
3.5633e-05
4.06073e-05
4.55003e-05
5.02765e-05
5.48946e-05
5.93217e-05
6.35392e-05
6.75151e-05
7.12522e-05
7.47215e-05
7.79361e-05
8.08812e-05
8.35703e-05
8.5996e-05
8.81785e-05
9.01083e-05
9.18085e-05
9.32776e-05
9.45319e-05
9.55762e-05
9.64233e-05
9.70812e-05
9.75598e-05
9.78677e-05
9.80139e-05
9.80059e-05
9.78524e-05
9.75589e-05
9.71339e-05
9.65823e-05
9.59103e-05
9.51234e-05
9.42254e-05
9.32223e-05
9.2116e-05
9.09129e-05
8.96133e-05
8.82231e-05
8.67427e-05
8.51769e-05
8.3526e-05
8.17938e-05
7.99809e-05
7.80907e-05
7.61236e-05
7.40826e-05
7.19683e-05
6.97842e-05
6.75299e-05
6.52098e-05
6.28233e-05
6.03755e-05
5.78656e-05
5.52991e-05
5.26766e-05
5.00029e-05
4.728e-05
4.45126e-05
4.17049e-05
3.88598e-05
3.59854e-05
3.30843e-05
3.0165e-05
2.72323e-05
2.42953e-05
2.13611e-05
1.84394e-05
1.55367e-05
1.26762e-05
9.84776e-06
7.09405e-06
4.39388e-06
1.80338e-06
-6.96544e-07
-3.05602e-06
-5.27191e-06
-7.31411e-06
-9.15327e-06
-1.07683e-05
-1.2129e-05
-1.32021e-05
-1.39722e-05
-1.43937e-05
-1.44479e-05
-1.41562e-05
-1.33868e-05
-1.23259e-05
-1.06804e-05
-8.84672e-06
-6.2659e-06
-3.92945e-06
7.21922e-09
3.00878e-06
7.30717e-06
1.13811e-05
1.59885e-05
2.07328e-05
2.56084e-05
3.0598e-05
3.55944e-05
4.0568e-05
4.54606e-05
5.02365e-05
5.48547e-05
5.92821e-05
6.35001e-05
6.74766e-05
7.12143e-05
7.46842e-05
7.78992e-05
8.08448e-05
8.35345e-05
8.59608e-05
8.8144e-05
9.00747e-05
9.17759e-05
9.32461e-05
9.45017e-05
9.55474e-05
9.63959e-05
9.70554e-05
9.75356e-05
9.78451e-05
9.79929e-05
9.79866e-05
9.78347e-05
9.75428e-05
9.71194e-05
9.65695e-05
9.58991e-05
9.51138e-05
9.42175e-05
9.3216e-05
9.21113e-05
9.09098e-05
8.96119e-05
8.82233e-05
8.67445e-05
8.51804e-05
8.3531e-05
8.18004e-05
7.99892e-05
7.81007e-05
7.61353e-05
7.4096e-05
7.19834e-05
6.9801e-05
6.75485e-05
6.52301e-05
6.28454e-05
6.03993e-05
5.78913e-05
5.53265e-05
5.27057e-05
5.00337e-05
4.73126e-05
4.45469e-05
4.17407e-05
3.88973e-05
3.60244e-05
3.31248e-05
3.02068e-05
2.72755e-05
2.43396e-05
2.14066e-05
1.84858e-05
1.55839e-05
1.2724e-05
9.89599e-06
7.1424e-06
4.44186e-06
1.85068e-06
-6.50421e-07
-3.01148e-06
-5.22938e-06
-7.27398e-06
-9.11576e-06
-1.07337e-05
-1.20976e-05
-1.31741e-05
-1.39478e-05
-1.43727e-05
-1.44303e-05
-1.41423e-05
-1.33761e-05
-1.23187e-05
-1.06768e-05
-8.84602e-06
-6.26948e-06
-3.94352e-06
-5.07365e-09
2.98407e-06
7.27896e-06
1.1349e-05
1.59518e-05
2.06934e-05
2.55667e-05
3.05552e-05
3.5551e-05
4.05244e-05
4.54169e-05
5.01928e-05
5.48115e-05
5.92396e-05
6.34585e-05
6.74359e-05
7.11746e-05
7.46455e-05
7.78612e-05
8.08076e-05
8.34979e-05
8.59251e-05
8.81092e-05
9.00409e-05
9.17433e-05
9.32149e-05
9.44719e-05
9.55191e-05
9.63692e-05
9.70303e-05
9.75121e-05
9.78234e-05
9.79729e-05
9.79683e-05
9.78181e-05
9.7528e-05
9.71063e-05
9.65581e-05
9.58895e-05
9.51059e-05
9.42112e-05
9.32115e-05
9.21085e-05
9.09087e-05
8.96125e-05
8.82256e-05
8.67486e-05
8.51861e-05
8.35385e-05
8.18096e-05
8.00001e-05
7.81134e-05
7.61497e-05
7.41122e-05
7.20014e-05
6.98208e-05
6.75701e-05
6.52535e-05
6.28706e-05
6.04264e-05
5.79201e-05
5.53572e-05
5.27382e-05
5.00679e-05
4.73485e-05
4.45845e-05
4.17799e-05
3.89381e-05
3.60666e-05
3.31684e-05
3.02518e-05
2.73216e-05
2.43869e-05
2.14549e-05
1.85348e-05
1.56336e-05
1.27742e-05
9.94628e-06
7.19256e-06
4.49138e-06
1.89921e-06
-6.03405e-07
-2.96644e-06
-5.18674e-06
-7.23417e-06
-9.07905e-06
-1.07004e-05
-1.2068e-05
-1.31482e-05
-1.39259e-05
-1.43546e-05
-1.4416e-05
-1.41318e-05
-1.33693e-05
-1.23155e-05
-1.06775e-05
-8.84964e-06
-6.27777e-06
-3.96312e-06
-2.24763e-08
2.95316e-06
7.24455e-06
1.13109e-05
1.59091e-05
2.06481e-05
2.55194e-05
3.05071e-05
3.55027e-05
4.04762e-05
4.53692e-05
5.01456e-05
5.47651e-05
5.91944e-05
6.34146e-05
6.73935e-05
7.11336e-05
7.46057e-05
7.78226e-05
8.077e-05
8.34613e-05
8.58895e-05
8.80748e-05
9.00077e-05
9.17114e-05
9.31845e-05
9.44431e-05
9.54919e-05
9.63437e-05
9.70065e-05
9.74901e-05
9.78031e-05
9.79545e-05
9.79517e-05
9.78033e-05
9.7515e-05
9.70951e-05
9.65487e-05
9.58818e-05
9.51001e-05
9.42072e-05
9.32092e-05
9.2108e-05
9.09099e-05
8.96156e-05
8.82305e-05
8.67552e-05
8.51945e-05
8.35486e-05
8.18215e-05
8.00139e-05
7.8129e-05
7.61671e-05
7.41315e-05
7.20226e-05
6.98438e-05
6.75949e-05
6.52802e-05
6.28992e-05
6.04568e-05
5.79524e-05
5.53912e-05
5.2774e-05
5.01055e-05
4.73878e-05
4.46254e-05
4.18224e-05
3.8982e-05
3.61119e-05
3.32151e-05
3.02996e-05
2.73706e-05
2.44368e-05
2.15056e-05
1.85862e-05
1.56853e-05
1.28261e-05
9.99818e-06
7.24402e-06
4.54192e-06
1.94838e-06
-5.56106e-07
-2.92153e-06
-5.14467e-06
-7.19546e-06
-9.04398e-06
-1.06692e-05
-1.20408e-05
-1.31252e-05
-1.39073e-05
-1.43403e-05
-1.44059e-05
-1.41258e-05
-1.33673e-05
-1.23171e-05
-1.06834e-05
-8.85837e-06
-6.29151e-06
-3.98883e-06
-4.5881e-08
2.91551e-06
7.20321e-06
1.12664e-05
1.586e-05
2.05964e-05
2.54662e-05
3.04535e-05
3.54494e-05
4.04234e-05
4.53174e-05
5.00949e-05
5.47157e-05
5.91467e-05
6.33689e-05
6.73496e-05
7.10915e-05
7.45653e-05
7.77837e-05
8.07325e-05
8.34251e-05
8.58547e-05
8.80412e-05
8.99756e-05
9.16809e-05
9.31556e-05
9.44159e-05
9.54665e-05
9.632e-05
9.69847e-05
9.74702e-05
9.7785e-05
9.79383e-05
9.79373e-05
9.77908e-05
9.75044e-05
9.70863e-05
9.65418e-05
9.58768e-05
9.50968e-05
9.42058e-05
9.32096e-05
9.21103e-05
9.0914e-05
8.96215e-05
8.82383e-05
8.67649e-05
8.52059e-05
8.35618e-05
8.18366e-05
8.00309e-05
7.81478e-05
7.61879e-05
7.41541e-05
7.20471e-05
6.98702e-05
6.76232e-05
6.53104e-05
6.29313e-05
6.04907e-05
5.79881e-05
5.54288e-05
5.28132e-05
5.01465e-05
4.74304e-05
4.46695e-05
4.1868e-05
3.9029e-05
3.61602e-05
3.32645e-05
3.03502e-05
2.7422e-05
2.4489e-05
2.15584e-05
1.86394e-05
1.57388e-05
1.28795e-05
1.00512e-05
7.29627e-06
4.59293e-06
1.99761e-06
-5.0913e-07
-2.87741e-06
-5.10394e-06
-7.15865e-06
-9.01126e-06
-1.06408e-05
-1.20169e-05
-1.3106e-05
-1.38929e-05
-1.43306e-05
-1.44008e-05
-1.41249e-05
-1.33709e-05
-1.23243e-05
-1.06954e-05
-8.87299e-06
-6.31147e-06
-4.02129e-06
-7.62531e-08
2.87075e-06
7.15448e-06
1.12148e-05
1.5804e-05
2.05381e-05
2.54068e-05
3.03941e-05
3.53907e-05
4.0366e-05
4.52616e-05
5.00408e-05
5.46637e-05
5.90969e-05
6.33215e-05
6.73048e-05
7.1049e-05
7.4525e-05
7.77452e-05
8.06959e-05
8.339e-05
8.58212e-05
8.80093e-05
8.99454e-05
9.16524e-05
9.31289e-05
9.4391e-05
9.54434e-05
9.62989e-05
9.69655e-05
9.74529e-05
9.77697e-05
9.79248e-05
9.79258e-05
9.77812e-05
9.74967e-05
9.70805e-05
9.65379e-05
9.58747e-05
9.50966e-05
9.42075e-05
9.32131e-05
9.21157e-05
9.09213e-05
8.96308e-05
8.82494e-05
8.67778e-05
8.52207e-05
8.35785e-05
8.18552e-05
8.00513e-05
7.81702e-05
7.62122e-05
7.41803e-05
7.20752e-05
6.99002e-05
6.76552e-05
6.53442e-05
6.29669e-05
6.05282e-05
5.80274e-05
5.54698e-05
5.2856e-05
5.01909e-05
4.74763e-05
4.47169e-05
4.19167e-05
3.9079e-05
3.62114e-05
3.33167e-05
3.04032e-05
2.74758e-05
2.45433e-05
2.16131e-05
1.86942e-05
1.57935e-05
1.29339e-05
1.01049e-05
7.34879e-06
4.64388e-06
2.04631e-06
-4.63102e-07
-2.83484e-06
-5.06534e-06
-7.12442e-06
-8.9816e-06
-1.0616e-05
-1.19971e-05
-1.30914e-05
-1.38835e-05
-1.43263e-05
-1.44015e-05
-1.41301e-05
-1.3381e-05
-1.23379e-05
-1.07142e-05
-8.89429e-06
-6.33839e-06
-4.06104e-06
-1.14528e-07
2.81834e-06
7.0977e-06
1.11557e-05
1.57407e-05
2.04727e-05
2.5341e-05
3.03288e-05
3.53269e-05
4.03039e-05
4.52019e-05
4.99835e-05
5.46092e-05
5.90453e-05
6.32731e-05
6.72595e-05
7.10066e-05
7.44853e-05
7.77078e-05
8.06606e-05
8.33567e-05
8.57898e-05
8.79797e-05
8.99177e-05
9.16265e-05
9.3105e-05
9.43691e-05
9.54235e-05
9.6281e-05
9.69495e-05
9.74389e-05
9.77577e-05
9.79148e-05
9.79177e-05
9.77751e-05
9.74924e-05
9.70782e-05
9.65375e-05
9.58762e-05
9.51e-05
9.42127e-05
9.32203e-05
9.21248e-05
9.09323e-05
8.96437e-05
8.82641e-05
8.67943e-05
8.52391e-05
8.35989e-05
8.18775e-05
8.00756e-05
7.81963e-05
7.62403e-05
7.42104e-05
7.21072e-05
6.99341e-05
6.76909e-05
6.53818e-05
6.30064e-05
6.05694e-05
5.80704e-05
5.55145e-05
5.29023e-05
5.02387e-05
4.75255e-05
4.47675e-05
4.19685e-05
3.91319e-05
3.62652e-05
3.33713e-05
3.04585e-05
2.75315e-05
2.45994e-05
2.16693e-05
1.87501e-05
1.58492e-05
1.29887e-05
1.01588e-05
7.40106e-06
4.6942e-06
2.0939e-06
-4.1874e-07
-2.79457e-06
-5.02954e-06
-7.09345e-06
-8.95575e-06
-1.05955e-05
-1.19822e-05
-1.30821e-05
-1.38799e-05
-1.43283e-05
-1.44089e-05
-1.41422e-05
-1.33983e-05
-1.23588e-05
-1.07406e-05
-8.92306e-06
-6.37301e-06
-4.1086e-06
-1.61642e-07
2.75791e-06
7.03244e-06
1.10886e-05
1.56699e-05
2.04001e-05
2.52685e-05
3.02574e-05
3.52577e-05
4.02374e-05
4.51384e-05
4.99233e-05
5.45526e-05
5.89925e-05
6.32239e-05
6.72143e-05
7.09648e-05
7.44468e-05
7.76721e-05
8.06275e-05
8.33259e-05
8.57612e-05
8.79531e-05
8.98933e-05
9.16042e-05
9.30848e-05
9.43509e-05
9.54074e-05
9.6267e-05
9.69375e-05
9.7429e-05
9.77497e-05
9.79088e-05
9.79137e-05
9.7773e-05
9.74923e-05
9.708e-05
9.65411e-05
9.58817e-05
9.51075e-05
9.42221e-05
9.32315e-05
9.2138e-05
9.09474e-05
8.96606e-05
8.82828e-05
8.68149e-05
8.52617e-05
8.36234e-05
8.19039e-05
8.01039e-05
7.82266e-05
7.62725e-05
7.42445e-05
7.21432e-05
6.9972e-05
6.77307e-05
6.54234e-05
6.30498e-05
6.06145e-05
5.81172e-05
5.55628e-05
5.29521e-05
5.02899e-05
4.7578e-05
4.48212e-05
4.20232e-05
3.91876e-05
3.63216e-05
3.34283e-05
3.05158e-05
2.75891e-05
2.46569e-05
2.17266e-05
1.88069e-05
1.59053e-05
1.30437e-05
1.02125e-05
7.45257e-06
4.74335e-06
2.13975e-06
-3.76783e-07
-2.75732e-06
-4.99718e-06
-7.06647e-06
-8.93449e-06
-1.05802e-05
-1.19729e-05
-1.30791e-05
-1.38831e-05
-1.43374e-05
-1.44239e-05
-1.41621e-05
-1.34239e-05
-1.23878e-05
-1.07756e-05
-8.96008e-06
-6.41606e-06
-4.16445e-06
-2.18443e-07
2.68899e-06
6.95816e-06
1.10132e-05
1.5591e-05
2.03198e-05
2.51893e-05
3.018e-05
3.51833e-05
4.01664e-05
4.50715e-05
4.98605e-05
5.44943e-05
5.89388e-05
6.31747e-05
6.71697e-05
7.09242e-05
7.44102e-05
7.76388e-05
8.05973e-05
8.32983e-05
8.57362e-05
8.79304e-05
8.98729e-05
9.1586e-05
9.30689e-05
9.43372e-05
9.53959e-05
9.62575e-05
9.69302e-05
9.74237e-05
9.77464e-05
9.79075e-05
9.79143e-05
9.77755e-05
9.74968e-05
9.70864e-05
9.65494e-05
9.58919e-05
9.51195e-05
9.4236e-05
9.32473e-05
9.21557e-05
9.09669e-05
8.9682e-05
8.8306e-05
8.684e-05
8.52887e-05
8.36523e-05
8.19347e-05
8.01367e-05
7.82612e-05
7.6309e-05
7.42829e-05
7.21835e-05
7.00142e-05
6.77747e-05
6.54691e-05
6.30972e-05
6.06635e-05
5.81678e-05
5.56149e-05
5.30055e-05
5.03446e-05
4.76338e-05
4.4878e-05
4.20808e-05
3.92459e-05
3.63803e-05
3.34873e-05
3.0575e-05
2.76481e-05
2.47156e-05
2.17847e-05
1.88642e-05
1.59615e-05
1.30982e-05
1.02653e-05
7.50277e-06
4.79076e-06
2.18307e-06
-3.37909e-07
-2.72363e-06
-4.96897e-06
-7.04424e-06
-8.91858e-06
-1.05708e-05
-1.19702e-05
-1.30831e-05
-1.38937e-05
-1.43546e-05
-1.44473e-05
-1.41906e-05
-1.34585e-05
-1.24257e-05
-1.08198e-05
-9.00611e-06
-6.46825e-06
-4.22911e-06
-2.8569e-07
2.61115e-06
6.87446e-06
1.09289e-05
1.55039e-05
2.02318e-05
2.51031e-05
3.00965e-05
3.51036e-05
4.00912e-05
4.50012e-05
4.97954e-05
5.44347e-05
5.88846e-05
6.3126e-05
6.71263e-05
7.08856e-05
7.43761e-05
7.76086e-05
8.05706e-05
8.32746e-05
8.57154e-05
8.79122e-05
8.98574e-05
9.15728e-05
9.30581e-05
9.43287e-05
9.53896e-05
9.62534e-05
9.69282e-05
9.74237e-05
9.77485e-05
9.79115e-05
9.79203e-05
9.77833e-05
9.75065e-05
9.70979e-05
9.65628e-05
9.59071e-05
9.51366e-05
9.42549e-05
9.32681e-05
9.21784e-05
9.09913e-05
8.97081e-05
8.8334e-05
8.68699e-05
8.53204e-05
8.3686e-05
8.19703e-05
8.01741e-05
7.83006e-05
7.63502e-05
7.4326e-05
7.22284e-05
7.00608e-05
6.7823e-05
6.55191e-05
6.31489e-05
6.07166e-05
5.82224e-05
5.56708e-05
5.30626e-05
5.04028e-05
4.76929e-05
4.49378e-05
4.21412e-05
3.93067e-05
3.64413e-05
3.35483e-05
3.06357e-05
2.77084e-05
2.47752e-05
2.18433e-05
1.89215e-05
1.60173e-05
1.31519e-05
1.03169e-05
7.55115e-06
4.83572e-06
2.22322e-06
-3.02709e-07
-2.69415e-06
-4.9456e-06
-7.02748e-06
-8.90877e-06
-1.05681e-05
-1.19747e-05
-1.30951e-05
-1.39127e-05
-1.43806e-05
-1.448e-05
-1.42285e-05
-1.35029e-05
-1.24733e-05
-1.0874e-05
-9.06191e-06
-6.53029e-06
-4.30309e-06
-3.63926e-07
2.52392e-06
6.78091e-06
1.08355e-05
1.54082e-05
2.01357e-05
2.50099e-05
3.00068e-05
3.50189e-05
4.00119e-05
4.4928e-05
4.97283e-05
5.43741e-05
5.88307e-05
6.30783e-05
6.70847e-05
7.08496e-05
7.43454e-05
7.75822e-05
8.05483e-05
8.32557e-05
8.56998e-05
8.78993e-05
8.98474e-05
9.15654e-05
9.30532e-05
9.43261e-05
9.53894e-05
9.62554e-05
9.69322e-05
9.74298e-05
9.77565e-05
9.79215e-05
9.79322e-05
9.7797e-05
9.7522e-05
9.71152e-05
9.65819e-05
9.5928e-05
9.51593e-05
9.42794e-05
9.32944e-05
9.22063e-05
9.10209e-05
8.97395e-05
8.83672e-05
8.69051e-05
8.53574e-05
8.37248e-05
8.20109e-05
8.02166e-05
7.83448e-05
7.63963e-05
7.43738e-05
7.2278e-05
7.01121e-05
6.7876e-05
6.55736e-05
6.32048e-05
6.0774e-05
5.82811e-05
5.57305e-05
5.31234e-05
5.04644e-05
4.77552e-05
4.50006e-05
4.22043e-05
3.93699e-05
3.65044e-05
3.3611e-05
3.06978e-05
2.77696e-05
2.48353e-05
2.1902e-05
1.89785e-05
1.60724e-05
1.32044e-05
1.03667e-05
7.59718e-06
4.87759e-06
2.25957e-06
-2.71717e-07
-2.66954e-06
-4.92776e-06
-7.01687e-06
-8.90578e-06
-1.05729e-05
-1.19873e-05
-1.31156e-05
-1.39409e-05
-1.44163e-05
-1.45227e-05
-1.42767e-05
-1.3558e-05
-1.25314e-05
-1.09391e-05
-9.12819e-06
-6.60298e-06
-4.38694e-06
-4.53703e-07
2.42678e-06
6.67712e-06
1.07325e-05
1.53037e-05
2.00315e-05
2.49096e-05
2.9911e-05
3.49291e-05
3.99287e-05
4.4852e-05
4.96597e-05
5.43131e-05
5.87774e-05
6.30322e-05
6.70457e-05
7.08169e-05
7.43186e-05
7.75604e-05
8.0531e-05
8.32423e-05
8.569e-05
8.78926e-05
8.98437e-05
9.15645e-05
9.3055e-05
9.43303e-05
9.5396e-05
9.62642e-05
9.69431e-05
9.74427e-05
9.77713e-05
9.79381e-05
9.79506e-05
9.78173e-05
9.7544e-05
9.71389e-05
9.66073e-05
9.59551e-05
9.51881e-05
9.431e-05
9.33265e-05
9.224e-05
9.10563e-05
8.97767e-05
8.84062e-05
8.69458e-05
8.53999e-05
8.3769e-05
8.20569e-05
8.02644e-05
7.83944e-05
7.64476e-05
7.44268e-05
7.23326e-05
7.01683e-05
6.79337e-05
6.56327e-05
6.32653e-05
6.08357e-05
5.83439e-05
5.57943e-05
5.31879e-05
5.05295e-05
4.78208e-05
4.50663e-05
4.227e-05
3.94354e-05
3.65693e-05
3.36753e-05
3.07611e-05
2.78316e-05
2.48957e-05
2.19606e-05
1.90348e-05
1.61263e-05
1.32551e-05
1.04143e-05
7.64017e-06
4.91579e-06
2.29168e-06
-2.45522e-07
-2.65043e-06
-4.91608e-06
-7.0131e-06
-8.9103e-06
-1.05858e-05
-1.20087e-05
-1.31456e-05
-1.3979e-05
-1.44624e-05
-1.45763e-05
-1.4336e-05
-1.36245e-05
-1.26008e-05
-1.10157e-05
-9.20567e-06
-6.68699e-06
-4.48118e-06
-5.55506e-07
2.31923e-06
6.56273e-06
1.06196e-05
1.519e-05
1.9919e-05
2.4802e-05
2.9809e-05
3.48343e-05
3.98419e-05
4.47736e-05
4.95898e-05
5.4252e-05
5.87252e-05
6.29884e-05
6.70099e-05
7.07881e-05
7.42965e-05
7.7544e-05
8.05197e-05
8.32352e-05
8.5687e-05
8.78928e-05
8.98474e-05
9.1571e-05
9.30642e-05
9.43421e-05
9.54101e-05
9.62805e-05
9.69615e-05
9.74631e-05
9.77936e-05
9.79622e-05
9.79764e-05
9.78447e-05
9.75731e-05
9.71696e-05
9.66396e-05
9.5989e-05
9.52236e-05
9.43469e-05
9.33649e-05
9.22801e-05
9.10979e-05
8.98201e-05
8.84512e-05
8.69925e-05
8.54482e-05
8.38191e-05
8.21087e-05
8.03179e-05
7.84495e-05
7.65044e-05
7.44851e-05
7.23925e-05
7.02296e-05
6.79964e-05
6.56966e-05
6.33305e-05
6.09018e-05
5.84109e-05
5.5862e-05
5.32563e-05
5.05981e-05
4.78895e-05
4.5135e-05
4.23383e-05
3.9503e-05
3.66361e-05
3.37409e-05
3.08252e-05
2.7894e-05
2.49561e-05
2.20186e-05
1.90901e-05
1.61787e-05
1.33037e-05
1.04592e-05
7.67959e-06
4.94975e-06
2.3191e-06
-2.24677e-07
-2.63738e-06
-4.91116e-06
-7.01677e-06
-8.92299e-06
-1.06076e-05
-1.20396e-05
-1.31857e-05
-1.40277e-05
-1.45197e-05
-1.46415e-05
-1.44071e-05
-1.37032e-05
-1.26822e-05
-1.11046e-05
-9.29505e-06
-6.78296e-06
-4.5864e-06
-6.69763e-07
2.2007e-06
6.43731e-06
1.04965e-05
1.50668e-05
1.97979e-05
2.46872e-05
2.97008e-05
3.47347e-05
3.97515e-05
4.4693e-05
4.95191e-05
5.41914e-05
5.86746e-05
6.29474e-05
6.6978e-05
7.07641e-05
7.42799e-05
7.75337e-05
8.05151e-05
8.32354e-05
8.56915e-05
8.79009e-05
8.9859e-05
9.15857e-05
9.30818e-05
9.43623e-05
9.54327e-05
9.63052e-05
9.69883e-05
9.74917e-05
9.7824e-05
9.79943e-05
9.80101e-05
9.78799e-05
9.76099e-05
9.72078e-05
9.66793e-05
9.60302e-05
9.52661e-05
9.43908e-05
9.34102e-05
9.23269e-05
9.11463e-05
8.987e-05
8.85027e-05
8.70456e-05
8.5503e-05
8.38755e-05
8.21666e-05
8.03774e-05
7.85105e-05
7.65669e-05
7.45491e-05
7.24579e-05
7.02962e-05
6.80643e-05
6.57656e-05
6.34005e-05
6.09726e-05
5.84824e-05
5.59339e-05
5.33284e-05
5.06703e-05
4.79615e-05
4.52065e-05
4.2409e-05
3.95728e-05
3.67045e-05
3.38077e-05
3.08901e-05
2.79567e-05
2.50162e-05
2.20758e-05
1.91441e-05
1.62292e-05
1.33499e-05
1.05008e-05
7.71499e-06
4.97925e-06
2.34135e-06
-2.09677e-07
-2.6309e-06
-4.91354e-06
-7.02847e-06
-8.94443e-06
-1.06389e-05
-1.20806e-05
-1.32366e-05
-1.40878e-05
-1.45889e-05
-1.47191e-05
-1.44907e-05
-1.37947e-05
-1.27763e-05
-1.12063e-05
-9.397e-06
-6.89154e-06
-4.70319e-06
-7.96905e-07
2.07064e-06
6.30049e-06
1.03627e-05
1.49339e-05
1.96681e-05
2.45648e-05
2.95865e-05
3.46303e-05
3.96577e-05
4.46104e-05
4.94478e-05
5.41316e-05
5.86261e-05
6.29096e-05
6.69506e-05
7.07456e-05
7.42696e-05
7.75303e-05
8.0518e-05
8.32435e-05
8.57044e-05
8.79177e-05
8.98796e-05
9.16094e-05
9.31086e-05
9.43917e-05
9.54644e-05
9.63392e-05
9.70242e-05
9.75294e-05
9.78634e-05
9.80352e-05
9.80524e-05
9.79237e-05
9.7655e-05
9.72543e-05
9.67272e-05
9.60792e-05
9.53162e-05
9.44422e-05
9.3463e-05
9.23811e-05
9.12019e-05
8.99271e-05
8.85612e-05
8.71056e-05
8.55644e-05
8.39384e-05
8.2231e-05
8.04432e-05
7.85777e-05
7.66355e-05
7.4619e-05
7.25291e-05
7.03685e-05
6.81377e-05
6.58398e-05
6.34755e-05
6.10481e-05
5.85583e-05
5.601e-05
5.34045e-05
5.0746e-05
4.80367e-05
4.52808e-05
4.24822e-05
3.96446e-05
3.67745e-05
3.38756e-05
3.09556e-05
2.80195e-05
2.50759e-05
2.2132e-05
1.91965e-05
1.62775e-05
1.33933e-05
1.05387e-05
7.7459e-06
5.00394e-06
2.35804e-06
-2.00945e-07
-2.63145e-06
-4.9237e-06
-7.04871e-06
-8.97518e-06
-1.06802e-05
-1.21324e-05
-1.3299e-05
-1.41599e-05
-1.46707e-05
-1.48098e-05
-1.45877e-05
-1.38999e-05
-1.2884e-05
-1.13217e-05
-9.51221e-06
-7.01338e-06
-4.8322e-06
-9.37377e-07
1.92843e-06
6.15178e-06
1.02178e-05
1.4791e-05
1.95294e-05
2.44348e-05
2.94658e-05
3.45211e-05
3.95607e-05
4.45261e-05
4.93764e-05
5.4073e-05
5.85803e-05
6.28758e-05
6.69283e-05
7.07332e-05
7.42664e-05
7.75346e-05
8.05292e-05
8.32604e-05
8.57266e-05
8.79441e-05
8.991e-05
9.16432e-05
9.31454e-05
9.44311e-05
9.55063e-05
9.63832e-05
9.707e-05
9.7577e-05
9.79124e-05
9.80856e-05
9.81043e-05
9.79767e-05
9.77093e-05
9.73097e-05
9.67835e-05
9.61365e-05
9.53746e-05
9.45019e-05
9.35238e-05
9.24432e-05
9.12652e-05
8.99917e-05
8.86271e-05
8.71729e-05
8.5633e-05
8.40083e-05
8.23022e-05
8.05158e-05
7.86516e-05
7.67106e-05
7.46952e-05
7.26063e-05
7.04467e-05
6.82167e-05
6.59195e-05
6.35557e-05
6.11286e-05
5.86389e-05
5.60905e-05
5.34846e-05
5.08255e-05
4.81152e-05
4.53581e-05
4.25578e-05
3.97183e-05
3.6846e-05
3.39446e-05
3.10216e-05
2.80822e-05
2.51349e-05
2.21871e-05
1.92471e-05
1.63236e-05
1.34334e-05
1.05727e-05
7.77232e-06
5.02348e-06
2.36885e-06
-1.98832e-07
-2.6394e-06
-4.94206e-06
-7.07792e-06
-9.01572e-06
-1.0732e-05
-1.21955e-05
-1.33733e-05
-1.42447e-05
-1.47657e-05
-1.49142e-05
-1.46987e-05
-1.40193e-05
-1.30059e-05
-1.14515e-05
-9.64139e-06
-7.14915e-06
-4.97407e-06
-1.09173e-06
1.77346e-06
5.99067e-06
1.00614e-05
1.46375e-05
1.93813e-05
2.42969e-05
2.93387e-05
3.44071e-05
3.94605e-05
4.44403e-05
4.9305e-05
5.40161e-05
5.85376e-05
6.28464e-05
6.69116e-05
7.07276e-05
7.42709e-05
7.75477e-05
8.05497e-05
8.32871e-05
8.57589e-05
8.79809e-05
8.99511e-05
9.16878e-05
9.31932e-05
9.44816e-05
9.55592e-05
9.6438e-05
9.71267e-05
9.76352e-05
9.7972e-05
9.81465e-05
9.81662e-05
9.80397e-05
9.77732e-05
9.73743e-05
9.6849e-05
9.6203e-05
9.54421e-05
9.45703e-05
9.35932e-05
9.25137e-05
9.13368e-05
9.00644e-05
8.87009e-05
8.72479e-05
8.57091e-05
8.40857e-05
8.23807e-05
8.05954e-05
7.87323e-05