/*--------------------------------*- C++ -*----------------------------------*\
| =========                 |                                                 |
| \\      /  F ield         | OpenFOAM: The Open Source CFD Toolbox           |
|  \\    /   O peration     | Version:  2306                                  |
|   \\  /    A nd           | Website:  www.openfoam.com                      |
|    \\/     M anipulation  |                                                 |
\*---------------------------------------------------------------------------*/
// * * * * * * * * * * * * * * * * * * * * * * * * * * * * * * * * * * * * * //
FoamFile
{
    version         2;
    format          ascii;
    class           volSymmTensorField;
    location        "0";
    object          Rdns;
}

dimensions      [ 0 2 -2 0 0 0 0 ];

internalField   nonuniform List<symmTensor> 
14751
(
(4.81811e-07 4.97677e-09 0 3.96658e-10 0 1.68471e-07)
(4.80384e-07 5.09222e-09 0 4.05404e-10 0 1.71352e-07)
(4.78836e-07 5.2049e-09 0 4.14287e-10 0 1.73947e-07)
(4.77244e-07 5.31625e-09 0 4.25235e-10 0 1.76501e-07)
(4.75781e-07 5.4238e-09 0 4.36506e-10 0 1.78925e-07)
(4.74375e-07 5.52907e-09 0 4.47944e-10 0 1.81211e-07)
(4.73077e-07 5.62167e-09 0 4.59654e-10 0 1.83559e-07)
(4.71849e-07 5.71201e-09 0 4.73323e-10 0 1.85958e-07)
(4.70986e-07 5.80435e-09 0 4.87164e-10 0 1.88398e-07)
(4.69998e-07 5.90138e-09 0 5.02502e-10 0 1.90824e-07)
(4.68781e-07 5.959e-09 0 5.16679e-10 0 1.92793e-07)
(4.67882e-07 6.02293e-09 0 5.29639e-10 0 1.9457e-07)
(4.67012e-07 6.07329e-09 0 5.43966e-10 0 1.96282e-07)
(4.66621e-07 6.11684e-09 0 5.60491e-10 0 1.98089e-07)
(4.66973e-07 6.16217e-09 0 5.77601e-10 0 1.99915e-07)
(4.67793e-07 6.22233e-09 0 5.95621e-10 0 2.01844e-07)
(4.68831e-07 6.26893e-09 0 6.13107e-10 0 2.03958e-07)
(4.70141e-07 6.31282e-09 0 6.31971e-10 0 2.06223e-07)
(4.71651e-07 6.36468e-09 0 6.51034e-10 0 2.08574e-07)
(4.73649e-07 6.41433e-09 0 6.715e-10 0 2.11173e-07)
(4.7666e-07 6.45938e-09 0 6.9601e-10 0 2.14214e-07)
(4.80526e-07 6.54813e-09 0 7.22309e-10 0 2.17117e-07)
(4.83703e-07 6.59795e-09 0 7.45417e-10 0 2.19902e-07)
(4.87207e-07 6.63905e-09 0 7.67614e-10 0 2.22471e-07)
(4.91007e-07 6.69922e-09 0 7.90402e-10 0 2.25265e-07)
(4.94922e-07 6.74889e-09 0 8.11986e-10 0 2.27817e-07)
(4.99571e-07 6.79288e-09 0 8.32738e-10 0 2.3038e-07)
(5.05311e-07 6.86642e-09 0 8.63193e-10 0 2.33628e-07)
(5.11316e-07 6.9675e-09 0 8.94315e-10 0 2.37087e-07)
(5.1657e-07 7.03819e-09 0 9.21211e-10 0 2.40248e-07)
(5.22217e-07 7.09824e-09 0 9.47442e-10 0 2.43532e-07)
(5.28634e-07 7.19378e-09 0 9.77439e-10 0 2.4745e-07)
(5.34276e-07 7.32553e-09 0 1.00737e-09 0 2.50978e-07)
(5.39613e-07 7.39328e-09 0 1.03816e-09 0 2.54407e-07)
(5.44715e-07 7.46347e-09 0 1.06549e-09 0 2.58088e-07)
(5.50597e-07 7.4959e-09 0 1.09272e-09 0 2.61536e-07)
(5.57781e-07 7.57546e-09 0 1.12384e-09 0 2.6461e-07)
(5.63567e-07 7.65685e-09 0 1.15766e-09 0 2.67902e-07)
(5.69188e-07 7.71166e-09 0 1.18225e-09 0 2.70708e-07)
(5.73689e-07 7.74797e-09 0 1.20461e-09 0 2.72504e-07)
(5.76903e-07 7.70846e-09 0 1.21749e-09 0 2.73282e-07)
(5.79515e-07 7.67147e-09 0 1.22619e-09 0 2.73959e-07)
(5.82269e-07 7.62865e-09 0 1.23299e-09 0 2.74517e-07)
(5.8597e-07 7.56164e-09 0 1.24179e-09 0 2.75101e-07)
(5.89422e-07 7.54511e-09 0 1.24481e-09 0 2.75358e-07)
(5.91781e-07 7.48027e-09 0 1.24636e-09 0 2.75005e-07)
(5.93019e-07 7.38057e-09 0 1.24794e-09 0 2.74078e-07)
(5.947e-07 7.29735e-09 0 1.24797e-09 0 2.72918e-07)
(5.97191e-07 7.23484e-09 0 1.24685e-09 0 2.71159e-07)
(5.98001e-07 7.14856e-09 0 1.24016e-09 0 2.67928e-07)
(5.98505e-07 6.9986e-09 0 1.22394e-09 0 2.64499e-07)
(5.9857e-07 6.88862e-09 0 1.21271e-09 0 2.62119e-07)
(5.97118e-07 6.73772e-09 0 1.20133e-09 0 2.58888e-07)
(5.96039e-07 6.5944e-09 0 1.1805e-09 0 2.54919e-07)
(5.94359e-07 6.44153e-09 0 1.15122e-09 0 2.51015e-07)
(5.91989e-07 6.28393e-09 0 1.12068e-09 0 2.46584e-07)
(5.87031e-07 6.09797e-09 0 1.0855e-09 0 2.41008e-07)
(5.81505e-07 5.88668e-09 0 1.05809e-09 0 2.3618e-07)
(5.77088e-07 5.66636e-09 0 1.02057e-09 0 2.30272e-07)
(5.72169e-07 5.48062e-09 0 9.79299e-10 0 2.24126e-07)
(5.67167e-07 5.31611e-09 0 9.40392e-10 0 2.181e-07)
(5.6129e-07 5.15634e-09 0 9.04216e-10 0 2.11962e-07)
(5.55185e-07 4.95212e-09 0 8.6029e-10 0 2.06215e-07)
(5.4983e-07 4.74124e-09 0 8.16077e-10 0 2.00303e-07)
(5.44219e-07 4.62234e-09 0 7.8249e-10 0 1.95483e-07)
(5.37876e-07 4.42694e-09 0 7.43568e-10 0 1.89466e-07)
(5.3202e-07 4.2668e-09 0 6.98165e-10 0 1.83339e-07)
(5.26019e-07 4.1573e-09 0 6.63441e-10 0 1.78074e-07)
(5.20247e-07 4.00237e-09 0 6.26873e-10 0 1.73196e-07)
(5.15573e-07 3.90778e-09 0 5.98718e-10 0 1.68994e-07)
(5.11242e-07 3.82077e-09 0 5.74224e-10 0 1.65023e-07)
(5.0761e-07 3.7532e-09 0 5.59509e-10 0 1.62223e-07)
(5.04214e-07 3.71889e-09 0 5.48152e-10 0 1.60084e-07)
(5.00827e-07 3.6483e-09 0 5.24349e-10 0 1.57145e-07)
(4.98088e-07 3.61975e-09 0 5.00448e-10 0 1.54569e-07)
(4.95784e-07 3.5823e-09 0 4.87826e-10 0 1.52599e-07)
(4.93613e-07 3.57756e-09 0 4.70943e-10 0 1.50746e-07)
(4.91274e-07 3.55609e-09 0 4.52633e-10 0 1.48796e-07)
(4.88764e-07 3.53287e-09 0 4.37821e-10 0 1.47103e-07)
(4.86493e-07 3.48803e-09 0 4.20703e-10 0 1.45742e-07)
(4.8496e-07 3.50465e-09 0 4.07648e-10 0 1.44763e-07)
(4.83222e-07 3.4965e-09 0 3.93632e-10 0 1.43733e-07)
(4.82227e-07 3.51087e-09 0 3.83038e-10 0 1.42881e-07)
(4.81541e-07 3.54102e-09 0 3.74114e-10 0 1.42567e-07)
(4.80983e-07 3.57422e-09 0 3.65708e-10 0 1.42356e-07)
(4.80474e-07 3.61626e-09 0 3.61276e-10 0 1.42355e-07)
(4.79984e-07 3.66299e-09 0 3.5754e-10 0 1.42685e-07)
(4.79977e-07 3.72173e-09 0 3.56724e-10 0 1.43594e-07)
(4.80286e-07 3.79083e-09 0 3.54532e-10 0 1.44712e-07)
(4.80679e-07 3.86257e-09 0 3.55012e-10 0 1.46012e-07)
(4.81082e-07 3.94801e-09 0 3.55654e-10 0 1.47251e-07)
(4.81473e-07 4.02743e-09 0 3.5439e-10 0 1.48616e-07)
(4.8223e-07 4.11994e-09 0 3.54079e-10 0 1.50399e-07)
(4.83334e-07 4.24002e-09 0 3.57121e-10 0 1.52663e-07)
(4.84069e-07 4.3772e-09 0 3.62263e-10 0 1.55234e-07)
(4.84016e-07 4.49951e-09 0 3.67335e-10 0 1.57828e-07)
(4.8356e-07 4.60462e-09 0 3.71638e-10 0 1.60345e-07)
(4.83084e-07 4.71386e-09 0 3.77397e-10 0 1.62807e-07)
(4.82706e-07 4.84102e-09 0 3.85602e-10 0 1.6553e-07)
(1.46711e-06 1.51543e-08 0 1.20783e-09 0 5.12994e-07)
(1.46277e-06 1.55058e-08 0 1.23446e-09 0 5.21769e-07)
(1.45805e-06 1.5849e-08 0 1.26151e-09 0 5.29669e-07)
(1.45559e-06 1.62146e-08 0 1.29698e-09 0 5.38328e-07)
(1.45351e-06 1.65698e-08 0 1.33354e-09 0 5.46617e-07)
(1.45159e-06 1.6919e-08 0 1.37072e-09 0 5.54509e-07)
(1.44998e-06 1.72305e-08 0 1.40886e-09 0 5.62611e-07)
(1.44857e-06 1.7536e-08 0 1.45312e-09 0 5.70896e-07)
(1.44828e-06 1.78485e-08 0 1.49805e-09 0 5.79328e-07)
(1.44759e-06 1.81764e-08 0 1.54773e-09 0 5.87742e-07)
(1.44619e-06 1.83835e-08 0 1.59397e-09 0 5.94768e-07)
(1.44575e-06 1.86109e-08 0 1.63661e-09 0 6.01224e-07)
(1.4454e-06 1.8797e-08 0 1.6836e-09 0 6.07495e-07)
(1.44652e-06 1.89623e-08 0 1.73755e-09 0 6.1408e-07)
(1.44995e-06 1.91337e-08 0 1.79349e-09 0 6.2074e-07)
(1.45484e-06 1.93514e-08 0 1.85241e-09 0 6.27739e-07)
(1.46278e-06 1.96644e-08 0 1.9376e-09 0 6.35867e-07)
(1.47297e-06 2.00512e-08 0 2.04552e-09 0 6.44802e-07)
(1.48382e-06 2.0466e-08 0 2.15658e-09 0 6.54023e-07)
(1.49009e-06 2.06243e-08 0 2.22382e-09 0 6.62144e-07)
(1.50573e-06 2.10232e-08 0 2.35743e-09 0 6.73565e-07)
(1.52407e-06 2.15615e-08 0 2.49851e-09 0 6.84565e-07)
(1.5404e-06 2.19856e-08 0 2.63416e-09 0 6.95249e-07)
(1.55784e-06 2.23815e-08 0 2.76982e-09 0 7.05291e-07)
(1.56995e-06 2.25817e-08 0 2.85078e-09 0 7.14075e-07)
(1.58885e-06 2.3012e-08 0 2.98941e-09 0 7.24103e-07)
(1.60367e-06 2.31598e-08 0 3.06301e-09 0 7.32168e-07)
(1.62856e-06 2.36771e-08 0 3.23971e-09 0 7.44442e-07)
(1.64768e-06 2.40116e-08 0 3.35114e-09 0 7.55318e-07)
(1.67119e-06 2.45242e-08 0 3.51859e-09 0 7.67368e-07)
(1.6894e-06 2.47316e-08 0 3.61778e-09 0 7.77793e-07)
(1.71662e-06 2.53302e-08 0 3.79844e-09 0 7.92243e-07)
(1.7349e-06 2.57853e-08 0 3.91391e-09 0 8.03432e-07)
(1.75906e-06 2.63076e-08 0 4.1081e-09 0 8.16455e-07)
(1.77565e-06 2.65522e-08 0 4.21363e-09 0 8.28124e-07)
(1.79477e-06 2.66745e-08 0 4.3213e-09 0 8.3908e-07)
(1.81787e-06 2.69436e-08 0 4.43944e-09 0 8.48817e-07)
(1.84367e-06 2.75091e-08 0 4.64902e-09 0 8.61411e-07)
(1.86184e-06 2.76944e-08 0 4.74265e-09 0 8.70269e-07)
(1.87651e-06 2.78184e-08 0 4.82687e-09 0 8.7593e-07)
(1.8872e-06 2.76883e-08 0 4.87921e-09 0 8.78367e-07)
(1.90316e-06 2.78555e-08 0 5.00017e-09 0 8.82694e-07)
(1.91226e-06 2.77024e-08 0 5.02836e-09 0 8.844e-07)
(1.92427e-06 2.74678e-08 0 5.06116e-09 0 8.86204e-07)
(1.93548e-06 2.74028e-08 0 5.07169e-09 0 8.86916e-07)
(1.94338e-06 2.71713e-08 0 5.07658e-09 0 8.85697e-07)
(1.94751e-06 2.68346e-08 0 5.08069e-09 0 8.82718e-07)
(1.95311e-06 2.65193e-08 0 5.07639e-09 0 8.78886e-07)
(1.9611e-06 2.62882e-08 0 5.06846e-09 0 8.73159e-07)
(1.96397e-06 2.59745e-08 0 5.03862e-09 0 8.62702e-07)
(1.96586e-06 2.54443e-08 0 4.97249e-09 0 8.51708e-07)
(1.96623e-06 2.50477e-08 0 4.92327e-09 0 8.43944e-07)
(1.9618e-06 2.45119e-08 0 4.87477e-09 0 8.33477e-07)
(1.95853e-06 2.39895e-08 0 4.78645e-09 0 8.20687e-07)
(1.95335e-06 2.34504e-08 0 4.66941e-09 0 8.08137e-07)
(1.94584e-06 2.28897e-08 0 4.54533e-09 0 7.93894e-07)
(1.93006e-06 2.22357e-08 0 4.40565e-09 0 7.76047e-07)
(1.91227e-06 2.1467e-08 0 4.28602e-09 0 7.60439e-07)
(1.89064e-06 2.04736e-08 0 4.07132e-09 0 7.39771e-07)
(1.87494e-06 1.98021e-08 0 3.89951e-09 0 7.20021e-07)
(1.85899e-06 1.92295e-08 0 3.75041e-09 0 7.00835e-07)
(1.84017e-06 1.86528e-08 0 3.60488e-09 0 6.81169e-07)
(1.81328e-06 1.77463e-08 0 3.37408e-09 0 6.61154e-07)
(1.79602e-06 1.70063e-08 0 3.20111e-09 0 6.42332e-07)
(1.778e-06 1.65816e-08 0 3.06607e-09 0 6.26881e-07)
(1.75772e-06 1.59132e-08 0 2.91959e-09 0 6.07786e-07)
(1.73164e-06 1.51651e-08 0 2.69429e-09 0 5.86703e-07)
(1.71244e-06 1.47784e-08 0 2.56181e-09 0 5.69975e-07)
(1.68692e-06 1.4079e-08 0 2.38075e-09 0 5.53049e-07)
(1.67193e-06 1.37522e-08 0 2.27318e-09 0 5.39701e-07)
(1.65802e-06 1.34486e-08 0 2.18009e-09 0 5.27086e-07)
(1.63951e-06 1.30583e-08 0 2.08474e-09 0 5.16837e-07)
(1.62178e-06 1.2783e-08 0 2.00196e-09 0 5.08667e-07)
(1.611e-06 1.25473e-08 0 1.91621e-09 0 4.99412e-07)
(1.59543e-06 1.22949e-08 0 1.79533e-09 0 4.89962e-07)
(1.58806e-06 1.21696e-08 0 1.7489e-09 0 4.83766e-07)
(1.57437e-06 1.1997e-08 0 1.65594e-09 0 4.76614e-07)
(1.56015e-06 1.17729e-08 0 1.55874e-09 0 4.69172e-07)
(1.55226e-06 1.16998e-08 0 1.50896e-09 0 4.63886e-07)
(1.53837e-06 1.14058e-08 0 1.42023e-09 0 4.58319e-07)
(1.52682e-06 1.13081e-08 0 1.34685e-09 0 4.5395e-07)
(1.51466e-06 1.11308e-08 0 1.27229e-09 0 4.49427e-07)
(1.50485e-06 1.10226e-08 0 1.20991e-09 0 4.45458e-07)
(1.49759e-06 1.10125e-08 0 1.16351e-09 0 4.43385e-07)
(1.49345e-06 1.10979e-08 0 1.13553e-09 0 4.42016e-07)
(1.48947e-06 1.12103e-08 0 1.11997e-09 0 4.41299e-07)
(1.48555e-06 1.13369e-08 0 1.10659e-09 0 4.4161e-07)
(1.48313e-06 1.15001e-08 0 1.10228e-09 0 4.43705e-07)
(1.48168e-06 1.16946e-08 0 1.09373e-09 0 4.46434e-07)
(1.48049e-06 1.18966e-08 0 1.09343e-09 0 4.49715e-07)
(1.47933e-06 1.214e-08 0 1.09364e-09 0 4.52795e-07)
(1.47812e-06 1.23641e-08 0 1.08798e-09 0 4.56248e-07)
(1.47803e-06 1.26275e-08 0 1.08525e-09 0 4.6097e-07)
(1.479e-06 1.29743e-08 0 1.09279e-09 0 4.67148e-07)
(1.47883e-06 1.33722e-08 0 1.10671e-09 0 4.74238e-07)
(1.47625e-06 1.37234e-08 0 1.12037e-09 0 4.81373e-07)
(1.47486e-06 1.4044e-08 0 1.13349e-09 0 4.89052e-07)
(1.47099e-06 1.43537e-08 0 1.14917e-09 0 4.95745e-07)
(1.46984e-06 1.47409e-08 0 1.17416e-09 0 5.04038e-07)
(4.16658e-06 1.00809e-07 0 1.39154e-08 0 1.19494e-06)
(4.15315e-06 1.02934e-07 0 1.42763e-08 0 1.21515e-06)
(4.13731e-06 1.05032e-07 0 1.46493e-08 0 1.23464e-06)
(4.13452e-06 1.07528e-07 0 1.51197e-08 0 1.25586e-06)
(4.13054e-06 1.09926e-07 0 1.56434e-08 0 1.2769e-06)
(4.1298e-06 1.12212e-07 0 1.61449e-08 0 1.29687e-06)
(4.13797e-06 1.14634e-07 0 1.66943e-08 0 1.31843e-06)
(4.14109e-06 1.16872e-07 0 1.72884e-08 0 1.33839e-06)
(4.15215e-06 1.19399e-07 0 1.79379e-08 0 1.35983e-06)
(4.1634e-06 1.21874e-07 0 1.86309e-08 0 1.3807e-06)
(4.17388e-06 1.23904e-07 0 1.92963e-08 0 1.39954e-06)
(4.18661e-06 1.25772e-07 0 1.99283e-08 0 1.41734e-06)
(4.20197e-06 1.27641e-07 0 2.06197e-08 0 1.43467e-06)
(4.22182e-06 1.29405e-07 0 2.13697e-08 0 1.45187e-06)
(4.24613e-06 1.31159e-07 0 2.21666e-08 0 1.46924e-06)
(4.26906e-06 1.32878e-07 0 2.29301e-08 0 1.48519e-06)
(4.30093e-06 1.34888e-07 0 2.37904e-08 0 1.50473e-06)
(4.33528e-06 1.36737e-07 0 2.46371e-08 0 1.52482e-06)
(4.36641e-06 1.38511e-07 0 2.54985e-08 0 1.5432e-06)
(4.40168e-06 1.40131e-07 0 2.63802e-08 0 1.56315e-06)
(4.45037e-06 1.42077e-07 0 2.74422e-08 0 1.58707e-06)
(4.49793e-06 1.44164e-07 0 2.84863e-08 0 1.6084e-06)
(4.53915e-06 1.45862e-07 0 2.9435e-08 0 1.62797e-06)
(4.5889e-06 1.47471e-07 0 3.04307e-08 0 1.64922e-06)
(4.64168e-06 1.49424e-07 0 3.1451e-08 0 1.67079e-06)
(4.68994e-06 1.50951e-07 0 3.23919e-08 0 1.68961e-06)
(4.74386e-06 1.5248e-07 0 3.3277e-08 0 1.70853e-06)
(4.81061e-06 1.5468e-07 0 3.45585e-08 0 1.73277e-06)
(4.87143e-06 1.56845e-07 0 3.57756e-08 0 1.75537e-06)
(4.92493e-06 1.58461e-07 0 3.68147e-08 0 1.77617e-06)
(4.98677e-06 1.6017e-07 0 3.78758e-08 0 1.80054e-06)
(5.0523e-06 1.62552e-07 0 3.91108e-08 0 1.82734e-06)
(5.1082e-06 1.65233e-07 0 4.02582e-08 0 1.84954e-06)
(5.17012e-06 1.67281e-07 0 4.15574e-08 0 1.87475e-06)
(5.22519e-06 1.68981e-07 0 4.26552e-08 0 1.89814e-06)
(5.28437e-06 1.70252e-07 0 4.37569e-08 0 1.92044e-06)
(5.34813e-06 1.71773e-07 0 4.4926e-08 0 1.94022e-06)
(5.4035e-06 1.73245e-07 0 4.60704e-08 0 1.95936e-06)
(5.4574e-06 1.74346e-07 0 4.69653e-08 0 1.97581e-06)
(5.4994e-06 1.74927e-07 0 4.7666e-08 0 1.98417e-06)
(5.54029e-06 1.74787e-07 0 4.82098e-08 0 1.98928e-06)
(5.578e-06 1.74526e-07 0 4.86116e-08 0 1.99392e-06)
(5.60497e-06 1.73708e-07 0 4.88834e-08 0 1.99463e-06)
(5.64336e-06 1.72765e-07 0 4.92206e-08 0 1.99805e-06)
(5.67516e-06 1.72091e-07 0 4.92774e-08 0 1.99507e-06)
(5.70033e-06 1.70889e-07 0 4.92826e-08 0 1.99012e-06)
(5.72397e-06 1.69613e-07 0 4.93309e-08 0 1.98508e-06)
(5.74144e-06 1.67519e-07 0 4.91782e-08 0 1.9743e-06)
(5.76e-06 1.65761e-07 0 4.89989e-08 0 1.95757e-06)
(5.77508e-06 1.63847e-07 0 4.86415e-08 0 1.93313e-06)
(5.78924e-06 1.60895e-07 0 4.79738e-08 0 1.90969e-06)
(5.79597e-06 1.58386e-07 0 4.73798e-08 0 1.8877e-06)
(5.79448e-06 1.55556e-07 0 4.68833e-08 0 1.86336e-06)
(5.79408e-06 1.52313e-07 0 4.59585e-08 0 1.83489e-06)
(5.783e-06 1.49095e-07 0 4.4775e-08 0 1.80497e-06)
(5.77033e-06 1.45848e-07 0 4.35335e-08 0 1.77324e-06)
(5.73283e-06 1.41916e-07 0 4.21355e-08 0 1.73425e-06)
(5.6964e-06 1.37734e-07 0 4.09542e-08 0 1.70053e-06)
(5.65813e-06 1.33117e-07 0 3.95604e-08 0 1.66029e-06)
(5.62947e-06 1.29286e-07 0 3.79281e-08 0 1.61959e-06)
(5.58848e-06 1.25656e-07 0 3.63807e-08 0 1.57812e-06)
(5.54162e-06 1.21834e-07 0 3.49153e-08 0 1.53508e-06)
(5.49377e-06 1.18119e-07 0 3.33166e-08 0 1.49668e-06)
(5.44444e-06 1.13699e-07 0 3.16151e-08 0 1.45857e-06)
(5.39716e-06 1.10965e-07 0 3.02282e-08 0 1.42398e-06)
(5.34249e-06 1.07101e-07 0 2.87426e-08 0 1.38424e-06)
(5.28021e-06 1.03212e-07 0 2.70298e-08 0 1.34142e-06)
(5.22903e-06 1.0048e-07 0 2.56978e-08 0 1.30702e-06)
(5.17224e-06 9.72274e-08 0 2.43537e-08 0 1.27456e-06)
(5.12899e-06 9.52178e-08 0 2.3259e-08 0 1.24679e-06)
(5.07969e-06 9.29815e-08 0 2.2257e-08 0 1.21875e-06)
(5.03876e-06 9.12383e-08 0 2.15331e-08 0 1.19849e-06)
(5.0009e-06 9.03168e-08 0 2.09697e-08 0 1.18183e-06)
(4.95464e-06 8.86044e-08 0 2.00419e-08 0 1.16164e-06)
(4.91912e-06 8.76635e-08 0 1.91983e-08 0 1.14546e-06)
(4.87769e-06 8.64604e-08 0 1.85436e-08 0 1.13071e-06)
(4.84528e-06 8.57604e-08 0 1.78499e-08 0 1.11769e-06)
(4.8055e-06 8.48802e-08 0 1.71219e-08 0 1.10413e-06)
(4.76818e-06 8.42164e-08 0 1.65225e-08 0 1.09286e-06)
(4.73251e-06 8.33739e-08 0 1.59093e-08 0 1.0838e-06)
(4.69976e-06 8.33874e-08 0 1.5398e-08 0 1.07612e-06)
(4.66024e-06 8.30048e-08 0 1.48686e-08 0 1.06738e-06)
(4.63029e-06 8.28611e-08 0 1.44457e-08 0 1.06143e-06)
(4.59535e-06 8.29338e-08 0 1.40756e-08 0 1.05685e-06)
(4.56124e-06 8.3023e-08 0 1.37213e-08 0 1.05348e-06)
(4.52717e-06 8.32197e-08 0 1.34525e-08 0 1.05165e-06)
(4.50186e-06 8.3645e-08 0 1.32934e-08 0 1.05313e-06)
(4.47208e-06 8.41785e-08 0 1.31466e-08 0 1.05607e-06)
(4.44404e-06 8.48402e-08 0 1.29998e-08 0 1.06086e-06)
(4.41644e-06 8.57358e-08 0 1.29311e-08 0 1.06603e-06)
(4.38735e-06 8.65986e-08 0 1.28682e-08 0 1.07121e-06)
(4.35816e-06 8.74602e-08 0 1.27659e-08 0 1.07807e-06)
(4.33028e-06 8.85765e-08 0 1.2715e-08 0 1.08723e-06)
(4.30341e-06 8.99319e-08 0 1.27363e-08 0 1.09879e-06)
(4.28092e-06 9.16756e-08 0 1.28436e-08 0 1.11275e-06)
(4.2537e-06 9.34094e-08 0 1.29768e-08 0 1.12729e-06)
(4.22312e-06 9.48393e-08 0 1.30914e-08 0 1.14093e-06)
(4.20454e-06 9.65579e-08 0 1.32921e-08 0 1.15713e-06)
(4.18354e-06 9.86132e-08 0 1.35649e-08 0 1.17531e-06)
(7.24349e-06 2.40076e-07 0 3.8924e-08 0 1.94431e-06)
(7.20284e-06 2.44331e-07 0 3.99217e-08 0 1.97424e-06)
(7.17034e-06 2.49307e-07 0 4.11557e-08 0 2.00678e-06)
(7.15132e-06 2.55117e-07 0 4.26848e-08 0 2.04043e-06)
(7.14326e-06 2.60731e-07 0 4.43046e-08 0 2.07366e-06)
(7.14666e-06 2.66661e-07 0 4.60327e-08 0 2.10776e-06)
(7.15373e-06 2.72632e-07 0 4.78852e-08 0 2.14182e-06)
(7.18099e-06 2.79481e-07 0 4.99971e-08 0 2.17818e-06)
(7.20273e-06 2.86026e-07 0 5.21575e-08 0 2.21192e-06)
(7.2282e-06 2.92339e-07 0 5.43641e-08 0 2.2446e-06)
(7.2609e-06 2.98578e-07 0 5.67467e-08 0 2.2771e-06)
(7.29224e-06 3.03881e-07 0 5.89452e-08 0 2.30661e-06)
(7.33041e-06 3.09198e-07 0 6.12125e-08 0 2.33495e-06)
(7.38224e-06 3.1496e-07 0 6.39025e-08 0 2.36483e-06)
(7.43517e-06 3.20172e-07 0 6.64828e-08 0 2.39238e-06)
(7.49503e-06 3.25667e-07 0 6.91284e-08 0 2.42048e-06)
(7.55481e-06 3.30806e-07 0 7.17617e-08 0 2.44852e-06)
(7.62807e-06 3.36519e-07 0 7.4609e-08 0 2.47922e-06)
(7.6983e-06 3.41837e-07 0 7.74117e-08 0 2.50748e-06)
(7.77704e-06 3.46878e-07 0 8.03879e-08 0 2.53797e-06)
(7.86659e-06 3.52167e-07 0 8.36607e-08 0 2.57031e-06)
(7.96345e-06 3.57942e-07 0 8.69275e-08 0 2.60272e-06)
(8.05873e-06 3.63469e-07 0 9.00708e-08 0 2.63405e-06)
(8.15633e-06 3.68373e-07 0 9.3128e-08 0 2.66525e-06)
(8.25492e-06 3.73394e-07 0 9.63202e-08 0 2.69452e-06)
(8.36251e-06 3.78518e-07 0 9.95075e-08 0 2.72518e-06)
(8.47246e-06 3.83367e-07 0 1.02514e-07 0 2.75437e-06)
(8.58178e-06 3.88416e-07 0 1.06061e-07 0 2.78421e-06)
(8.69202e-06 3.9358e-07 0 1.09621e-07 0 2.81515e-06)
(8.80559e-06 3.98604e-07 0 1.12893e-07 0 2.84751e-06)
(8.91873e-06 4.03292e-07 0 1.16011e-07 0 2.8824e-06)
(9.04021e-06 4.09338e-07 0 1.19884e-07 0 2.91929e-06)
(9.15025e-06 4.15768e-07 0 1.23345e-07 0 2.95046e-06)
(9.25928e-06 4.2072e-07 0 1.27014e-07 0 2.98387e-06)
(9.36664e-06 4.25033e-07 0 1.30358e-07 0 3.01506e-06)
(9.48214e-06 4.29271e-07 0 1.33673e-07 0 3.04598e-06)
(9.59432e-06 4.3254e-07 0 1.36842e-07 0 3.07269e-06)
(9.70169e-06 4.36183e-07 0 1.40022e-07 0 3.09653e-06)
(9.80272e-06 4.38655e-07 0 1.42457e-07 0 3.11558e-06)
(9.90467e-06 4.41041e-07 0 1.44436e-07 0 3.12835e-06)
(9.98562e-06 4.41428e-07 0 1.45804e-07 0 3.13228e-06)
(1.00637e-05 4.41115e-07 0 1.46832e-07 0 3.13403e-06)
(1.01316e-05 4.40062e-07 0 1.4779e-07 0 3.13341e-06)
(1.02044e-05 4.37932e-07 0 1.48457e-07 0 3.1334e-06)
(1.0282e-05 4.36773e-07 0 1.48592e-07 0 3.12574e-06)
(1.03494e-05 4.34977e-07 0 1.48622e-07 0 3.11703e-06)
(1.04006e-05 4.31938e-07 0 1.48316e-07 0 3.10505e-06)
(1.04577e-05 4.27938e-07 0 1.478e-07 0 3.08923e-06)
(1.05074e-05 4.23682e-07 0 1.469e-07 0 3.06038e-06)
(1.05535e-05 4.19042e-07 0 1.45521e-07 0 3.02374e-06)
(1.06003e-05 4.12258e-07 0 1.43437e-07 0 2.98767e-06)
(1.06371e-05 4.06788e-07 0 1.4142e-07 0 2.94908e-06)
(1.06541e-05 4.00441e-07 0 1.39512e-07 0 2.90799e-06)
(1.06816e-05 3.9329e-07 0 1.36718e-07 0 2.86555e-06)
(1.06947e-05 3.8615e-07 0 1.33159e-07 0 2.81936e-06)
(1.07024e-05 3.79299e-07 0 1.29468e-07 0 2.77025e-06)
(1.06813e-05 3.70945e-07 0 1.25395e-07 0 2.71533e-06)
(1.0647e-05 3.61452e-07 0 1.21524e-07 0 2.66255e-06)
(1.06045e-05 3.50761e-07 0 1.17389e-07 0 2.60397e-06)
(1.05752e-05 3.4183e-07 0 1.12648e-07 0 2.5451e-06)
(1.05285e-05 3.3356e-07 0 1.08072e-07 0 2.48433e-06)
(1.04709e-05 3.24507e-07 0 1.0372e-07 0 2.42322e-06)
(1.04058e-05 3.16061e-07 0 9.90903e-08 0 2.36754e-06)
(1.03379e-05 3.06616e-07 0 9.43416e-08 0 2.31528e-06)
(1.02706e-05 2.99392e-07 0 8.99473e-08 0 2.26399e-06)
(1.01817e-05 2.9063e-07 0 8.53863e-08 0 2.20538e-06)
(1.00858e-05 2.81854e-07 0 8.08658e-08 0 2.14637e-06)
(9.99203e-06 2.74278e-07 0 7.67808e-08 0 2.09541e-06)
(9.90251e-06 2.66814e-07 0 7.30836e-08 0 2.05163e-06)
(9.80992e-06 2.61154e-07 0 6.974e-08 0 2.0104e-06)
(9.72132e-06 2.55473e-07 0 6.68404e-08 0 1.97171e-06)
(9.64091e-06 2.50814e-07 0 6.43934e-08 0 1.94208e-06)
(9.55695e-06 2.47756e-07 0 6.23299e-08 0 1.91617e-06)
(9.47275e-06 2.43897e-07 0 5.9858e-08 0 1.89039e-06)
(9.38724e-06 2.40523e-07 0 5.73256e-08 0 1.86842e-06)
(9.29555e-06 2.37194e-07 0 5.52395e-08 0 1.84815e-06)
(9.21281e-06 2.34578e-07 0 5.3061e-08 0 1.82903e-06)
(9.12209e-06 2.3177e-07 0 5.09363e-08 0 1.81107e-06)
(9.02642e-06 2.29121e-07 0 4.90155e-08 0 1.79568e-06)
(8.9342e-06 2.26642e-07 0 4.72178e-08 0 1.78335e-06)
(8.84284e-06 2.25466e-07 0 4.56867e-08 0 1.77223e-06)
(8.74893e-06 2.24077e-07 0 4.41403e-08 0 1.76168e-06)
(8.64986e-06 2.22313e-07 0 4.2748e-08 0 1.75182e-06)
(8.55961e-06 2.21626e-07 0 4.16379e-08 0 1.7467e-06)
(8.46387e-06 2.20543e-07 0 4.05489e-08 0 1.74224e-06)
(8.36273e-06 2.19176e-07 0 3.95934e-08 0 1.73847e-06)
(8.27142e-06 2.18643e-07 0 3.88914e-08 0 1.73969e-06)
(8.18326e-06 2.18563e-07 0 3.82749e-08 0 1.74379e-06)
(8.09027e-06 2.18331e-07 0 3.76559e-08 0 1.74822e-06)
(8.003e-06 2.19054e-07 0 3.7285e-08 0 1.75527e-06)
(7.91137e-06 2.19685e-07 0 3.69435e-08 0 1.76337e-06)
(7.81441e-06 2.19647e-07 0 3.64888e-08 0 1.7714e-06)
(7.7271e-06 2.20454e-07 0 3.62146e-08 0 1.78393e-06)
(7.64753e-06 2.22093e-07 0 3.61597e-08 0 1.80127e-06)
(7.56465e-06 2.24288e-07 0 3.62813e-08 0 1.82025e-06)
(7.48047e-06 2.26162e-07 0 3.63924e-08 0 1.83846e-06)
(7.40334e-06 2.2872e-07 0 3.67002e-08 0 1.86068e-06)
(7.33894e-06 2.31778e-07 0 3.72249e-08 0 1.88558e-06)
(7.29001e-06 2.35636e-07 0 3.79538e-08 0 1.9138e-06)
(1.04629e-05 4.3412e-07 0 7.96144e-08 0 2.73717e-06)
(1.0383e-05 4.41693e-07 0 8.20293e-08 0 2.77949e-06)
(1.03074e-05 4.49157e-07 0 8.45446e-08 0 2.82102e-06)
(1.02529e-05 4.58353e-07 0 8.78293e-08 0 2.86533e-06)
(1.02124e-05 4.67714e-07 0 9.15605e-08 0 2.90991e-06)
(1.01884e-05 4.77703e-07 0 9.57438e-08 0 2.95613e-06)
(1.01777e-05 4.87601e-07 0 9.98875e-08 0 3.00109e-06)
(1.01844e-05 4.9888e-07 0 1.04708e-07 0 3.04729e-06)
(1.01928e-05 5.09556e-07 0 1.09433e-07 0 3.08988e-06)
(1.02121e-05 5.2053e-07 0 1.14654e-07 0 3.1327e-06)
(1.02436e-05 5.31326e-07 0 1.20063e-07 0 3.17513e-06)
(1.02809e-05 5.40938e-07 0 1.25294e-07 0 3.21492e-06)
(1.03292e-05 5.50685e-07 0 1.30705e-07 0 3.25356e-06)
(1.03841e-05 5.59974e-07 0 1.36426e-07 0 3.28958e-06)
(1.04548e-05 5.69763e-07 0 1.42389e-07 0 3.32633e-06)
(1.05356e-05 5.79772e-07 0 1.48556e-07 0 3.36341e-06)
(1.06241e-05 5.89546e-07 0 1.54769e-07 0 3.40054e-06)
(1.07179e-05 5.99331e-07 0 1.60804e-07 0 3.43591e-06)
(1.08243e-05 6.09569e-07 0 1.67524e-07 0 3.47214e-06)
(1.09357e-05 6.187e-07 0 1.74032e-07 0 3.50883e-06)
(1.10557e-05 6.27852e-07 0 1.80817e-07 0 3.54529e-06)
(1.1188e-05 6.37739e-07 0 1.87786e-07 0 3.58276e-06)
(1.13293e-05 6.48169e-07 0 1.94687e-07 0 3.62141e-06)
(1.14709e-05 6.57605e-07 0 2.01417e-07 0 3.65909e-06)
(1.16169e-05 6.67031e-07 0 2.084e-07 0 3.69412e-06)
(1.17707e-05 6.76154e-07 0 2.15355e-07 0 3.72953e-06)
(1.19246e-05 6.84809e-07 0 2.21779e-07 0 3.76473e-06)
(1.20839e-05 6.94538e-07 0 2.29072e-07 0 3.80117e-06)
(1.2249e-05 7.0442e-07 0 2.3678e-07 0 3.83927e-06)
(1.2408e-05 7.13218e-07 0 2.4339e-07 0 3.87609e-06)
(1.25743e-05 7.224e-07 0 2.50274e-07 0 3.91819e-06)
(1.27401e-05 7.32136e-07 0 2.57744e-07 0 3.95811e-06)
(1.29057e-05 7.42984e-07 0 2.65169e-07 0 3.9927e-06)
(1.3069e-05 7.5229e-07 0 2.72891e-07 0 4.03084e-06)
(1.32369e-05 7.60844e-07 0 2.80038e-07 0 4.06811e-06)
(1.34037e-05 7.68561e-07 0 2.86609e-07 0 4.10107e-06)
(1.35713e-05 7.74731e-07 0 2.92733e-07 0 4.13284e-06)
(1.37303e-05 7.81129e-07 0 2.98547e-07 0 4.15693e-06)
(1.38893e-05 7.85791e-07 0 3.03362e-07 0 4.17453e-06)
(1.40487e-05 7.90244e-07 0 3.06801e-07 0 4.18663e-06)
(1.41908e-05 7.92837e-07 0 3.09559e-07 0 4.19033e-06)
(1.43332e-05 7.94485e-07 0 3.11857e-07 0 4.19111e-06)
(1.44541e-05 7.93509e-07 0 3.13451e-07 0 4.18511e-06)
(1.45876e-05 7.91278e-07 0 3.14555e-07 0 4.17958e-06)
(1.47174e-05 7.89707e-07 0 3.14307e-07 0 4.16502e-06)
(1.4842e-05 7.87577e-07 0 3.13851e-07 0 4.14914e-06)
(1.49573e-05 7.84428e-07 0 3.13228e-07 0 4.13295e-06)
(1.50723e-05 7.79275e-07 0 3.11647e-07 0 4.1097e-06)
(1.51753e-05 7.73151e-07 0 3.09422e-07 0 4.07195e-06)
(1.52774e-05 7.65139e-07 0 3.05898e-07 0 4.02624e-06)
(1.53762e-05 7.54931e-07 0 3.01605e-07 0 3.98051e-06)
(1.54733e-05 7.46882e-07 0 2.96992e-07 0 3.92712e-06)
(1.55529e-05 7.37458e-07 0 2.92195e-07 0 3.87229e-06)
(1.56385e-05 7.26657e-07 0 2.86171e-07 0 3.81745e-06)
(1.57077e-05 7.1619e-07 0 2.78996e-07 0 3.75712e-06)
(1.57553e-05 7.04468e-07 0 2.70667e-07 0 3.68972e-06)
(1.57904e-05 6.92072e-07 0 2.62387e-07 0 3.62307e-06)
(1.57974e-05 6.77347e-07 0 2.54228e-07 0 3.5555e-06)
(1.58007e-05 6.61043e-07 0 2.45395e-07 0 3.48479e-06)
(1.57889e-05 6.46069e-07 0 2.35962e-07 0 3.41265e-06)
(1.57796e-05 6.32934e-07 0 2.26664e-07 0 3.3393e-06)
(1.57322e-05 6.18253e-07 0 2.17724e-07 0 3.2663e-06)
(1.5678e-05 6.04346e-07 0 2.08074e-07 0 3.19919e-06)
(1.56085e-05 5.89023e-07 0 1.98225e-07 0 3.13627e-06)
(1.55346e-05 5.76333e-07 0 1.88967e-07 0 3.07202e-06)
(1.54438e-05 5.63192e-07 0 1.79918e-07 0 3.00299e-06)
(1.53245e-05 5.48186e-07 0 1.70798e-07 0 2.93249e-06)
(1.51926e-05 5.34057e-07 0 1.62175e-07 0 2.87035e-06)
(1.50657e-05 5.21056e-07 0 1.54731e-07 0 2.81852e-06)
(1.49397e-05 5.10725e-07 0 1.4804e-07 0 2.77106e-06)
(1.48104e-05 5.00338e-07 0 1.41953e-07 0 2.7274e-06)
(1.46856e-05 4.91591e-07 0 1.3664e-07 0 2.69323e-06)
(1.45568e-05 4.85186e-07 0 1.31988e-07 0 2.66248e-06)
(1.44263e-05 4.78529e-07 0 1.26875e-07 0 2.63369e-06)
(1.42834e-05 4.71489e-07 0 1.21815e-07 0 2.6093e-06)
(1.41376e-05 4.65223e-07 0 1.17187e-07 0 2.58761e-06)
(1.39862e-05 4.59231e-07 0 1.12618e-07 0 2.56466e-06)
(1.38264e-05 4.53006e-07 0 1.08134e-07 0 2.54393e-06)
(1.36763e-05 4.47811e-07 0 1.04298e-07 0 2.52953e-06)
(1.35113e-05 4.42735e-07 0 1.00479e-07 0 2.51702e-06)
(1.33427e-05 4.39212e-07 0 9.71374e-08 0 2.5057e-06)
(1.31755e-05 4.35433e-07 0 9.39862e-08 0 2.4939e-06)
(1.29963e-05 4.31022e-07 0 9.09937e-08 0 2.48425e-06)
(1.28256e-05 4.27534e-07 0 8.85011e-08 0 2.47699e-06)
(1.26457e-05 4.23622e-07 0 8.6046e-08 0 2.47219e-06)
(1.24838e-05 4.20233e-07 0 8.40432e-08 0 2.47149e-06)
(1.23169e-05 4.17378e-07 0 8.22789e-08 0 2.47342e-06)
(1.21554e-05 4.15292e-07 0 8.0667e-08 0 2.478e-06)
(1.19925e-05 4.13911e-07 0 7.92711e-08 0 2.48498e-06)
(1.18307e-05 4.13e-07 0 7.81682e-08 0 2.49252e-06)
(1.16658e-05 4.11827e-07 0 7.71112e-08 0 2.50163e-06)
(1.14996e-05 4.10478e-07 0 7.61044e-08 0 2.51409e-06)
(1.1342e-05 4.10301e-07 0 7.54116e-08 0 2.53132e-06)
(1.11896e-05 4.10726e-07 0 7.49019e-08 0 2.55093e-06)
(1.10437e-05 4.12281e-07 0 7.47743e-08 0 2.57323e-06)
(1.09043e-05 4.14913e-07 0 7.49815e-08 0 2.59927e-06)
(1.07751e-05 4.18069e-07 0 7.54186e-08 0 2.62806e-06)
(1.06549e-05 4.21743e-07 0 7.62072e-08 0 2.65933e-06)
(1.05551e-05 4.27392e-07 0 7.76564e-08 0 2.69686e-06)
(1.30008e-05 6.66208e-07 0 1.4345e-07 0 3.51386e-06)
(1.28664e-05 6.75094e-07 0 1.4745e-07 0 3.56217e-06)
(1.2761e-05 6.85592e-07 0 1.52078e-07 0 3.61533e-06)
(1.26763e-05 6.96909e-07 0 1.57476e-07 0 3.66898e-06)
(1.26196e-05 7.09326e-07 0 1.63723e-07 0 3.72484e-06)
(1.25856e-05 7.21944e-07 0 1.70348e-07 0 3.78103e-06)
(1.253e-05 7.338e-07 0 1.78171e-07 0 3.83243e-06)
(1.24947e-05 7.47273e-07 0 1.86746e-07 0 3.88345e-06)
(1.24713e-05 7.60638e-07 0 1.95506e-07 0 3.93181e-06)
(1.24617e-05 7.73755e-07 0 2.04747e-07 0 3.97793e-06)
(1.24699e-05 7.86769e-07 0 2.14308e-07 0 4.02405e-06)
(1.24953e-05 7.99135e-07 0 2.2374e-07 0 4.06947e-06)
(1.25373e-05 8.11896e-07 0 2.3372e-07 0 4.11401e-06)
(1.25917e-05 8.24429e-07 0 2.44019e-07 0 4.15608e-06)
(1.26632e-05 8.37299e-07 0 2.54716e-07 0 4.1969e-06)
(1.2749e-05 8.50258e-07 0 2.65649e-07 0 4.23783e-06)
(1.28487e-05 8.63567e-07 0 2.76583e-07 0 4.27978e-06)
(1.29596e-05 8.77306e-07 0 2.87396e-07 0 4.31777e-06)
(1.30829e-05 8.91064e-07 0 2.99067e-07 0 4.3566e-06)
(1.32166e-05 9.03543e-07 0 3.10559e-07 0 4.39393e-06)
(1.33646e-05 9.17091e-07 0 3.22592e-07 0 4.43419e-06)
(1.35233e-05 9.30786e-07 0 3.34461e-07 0 4.47303e-06)
(1.36929e-05 9.45234e-07 0 3.4614e-07 0 4.51331e-06)
(1.38643e-05 9.58683e-07 0 3.57496e-07 0 4.55198e-06)
(1.40474e-05 9.72651e-07 0 3.69634e-07 0 4.58915e-06)
(1.42387e-05 9.8621e-07 0 3.81528e-07 0 4.62703e-06)
(1.44297e-05 9.98937e-07 0 3.92626e-07 0 4.66643e-06)
(1.46277e-05 1.01336e-06 0 4.04741e-07 0 4.70723e-06)
(1.48287e-05 1.02752e-06 0 4.17276e-07 0 4.74679e-06)
(1.50292e-05 1.04105e-06 0 4.28593e-07 0 4.78652e-06)
(1.52332e-05 1.05432e-06 0 4.40016e-07 0 4.83015e-06)
(1.54433e-05 1.06804e-06 0 4.52181e-07 0 4.86828e-06)
(1.56557e-05 1.08327e-06 0 4.64451e-07 0 4.90304e-06)
(1.58683e-05 1.09789e-06 0 4.7732e-07 0 4.94196e-06)
(1.60844e-05 1.11087e-06 0 4.89249e-07 0 4.97909e-06)
(1.63018e-05 1.12249e-06 0 4.99643e-07 0 5.01347e-06)
(1.65188e-05 1.13254e-06 0 5.08949e-07 0 5.04716e-06)
(1.67368e-05 1.143e-06 0 5.18114e-07 0 5.07076e-06)
(1.69494e-05 1.15077e-06 0 5.25374e-07 0 5.08608e-06)
(1.7167e-05 1.15797e-06 0 5.30391e-07 0 5.09584e-06)
(1.73768e-05 1.16453e-06 0 5.35091e-07 0 5.10111e-06)
(1.75772e-05 1.16839e-06 0 5.38092e-07 0 5.09853e-06)
(1.7771e-05 1.16987e-06 0 5.40591e-07 0 5.09047e-06)
(1.79701e-05 1.1691e-06 0 5.41862e-07 0 5.07737e-06)
(1.81695e-05 1.16864e-06 0 5.41052e-07 0 5.05785e-06)
(1.83624e-05 1.1675e-06 0 5.39546e-07 0 5.03676e-06)
(1.85505e-05 1.16567e-06 0 5.37723e-07 0 5.01288e-06)
(1.8735e-05 1.16164e-06 0 5.34516e-07 0 4.98161e-06)