/*--------------------------------*- C++ -*----------------------------------*\
| =========                 |                                                 |
| \\      /  F ield         | OpenFOAM: The Open Source CFD Toolbox           |
|  \\    /   O peration     | Version:  2306                                  |
|   \\  /    A nd           | Website:  www.openfoam.com                      |
|    \\/     M anipulation  |                                                 |
\*---------------------------------------------------------------------------*/
// * * * * * * * * * * * * * * * * * * * * * * * * * * * * * * * * * * * * * //
FoamFile
{
    version         2;
    format          ascii;
    class           volSymmTensorField;
    location        "2977.26";
    object          R;
}

dimensions      [ 0 2 -2 0 0 0 0 ];

internalField   nonuniform List<symmTensor> 
14751
(
(1.90721e-05 1.87815e-05 -2.8108e-37 1.90738e-05 -5.59343e-32 1.9073e-05)
(1.89044e-05 1.86076e-05 -4.08106e-30 1.89056e-05 9.12639e-28 1.89061e-05)
(1.87574e-05 1.84637e-05 -1.53517e-27 1.87639e-05 5.40197e-29 1.87606e-05)
(1.85575e-05 1.82912e-05 2.98391e-27 1.85683e-05 5.57175e-30 1.8563e-05)
(1.83582e-05 1.81277e-05 -1.4533e-27 1.83728e-05 -4.05989e-28 1.8365e-05)
(1.81328e-05 1.79585e-05 8.34576e-29 1.8152e-05 7.97749e-28 1.81416e-05)
(1.78938e-05 1.7787e-05 -6.84872e-29 1.79162e-05 3.0216e-26 1.7904e-05)
(1.76445e-05 1.76179e-05 7.20674e-28 1.76702e-05 6.50901e-29 1.76561e-05)
(1.73865e-05 1.74508e-05 8.25042e-30 1.7415e-05 -4.1954e-26 1.73993e-05)
(1.71253e-05 1.72894e-05 2.27125e-30 1.71561e-05 -7.13508e-28 1.7139e-05)
(1.6864e-05 1.71359e-05 8.84746e-30 1.68967e-05 -5.46717e-26 1.68785e-05)
(1.66061e-05 1.69927e-05 -8.81022e-30 1.66402e-05 -5.37919e-30 1.66211e-05)
(1.63532e-05 1.68607e-05 1.77575e-29 1.63886e-05 6.63276e-26 1.63687e-05)
(1.61085e-05 1.6741e-05 -5.41947e-29 1.61447e-05 4.64044e-27 1.61243e-05)
(1.58737e-05 1.66343e-05 -1.39294e-27 1.59103e-05 -9.98416e-27 1.58896e-05)
(1.565e-05 1.65408e-05 7.29802e-29 1.56868e-05 -2.77537e-28 1.56659e-05)
(1.54386e-05 1.6461e-05 6.55243e-28 1.54754e-05 1.10729e-26 1.54544e-05)
(1.52396e-05 1.63938e-05 1.50012e-29 1.5276e-05 -5.58511e-27 1.52552e-05)
(1.5054e-05 1.63401e-05 -1.8324e-29 1.50899e-05 -4.21034e-26 1.50693e-05)
(1.48817e-05 1.62987e-05 1.50727e-29 1.49169e-05 -6.15328e-27 1.48967e-05)
(1.47231e-05 1.62697e-05 -8.46328e-29 1.47574e-05 -2.96967e-29 1.47377e-05)
(1.45779e-05 1.62523e-05 5.0719e-29 1.46112e-05 5.3995e-26 1.4592e-05)
(1.44458e-05 1.62461e-05 -6.65419e-29 1.44781e-05 -6.26993e-26 1.44594e-05)
(1.4326e-05 1.62495e-05 7.36321e-29 1.43571e-05 7.14503e-26 1.43391e-05)
(1.42187e-05 1.62627e-05 8.01114e-29 1.42486e-05 -7.21361e-27 1.42312e-05)
(1.4123e-05 1.62843e-05 -7.10664e-29 1.41516e-05 -1.32298e-29 1.41349e-05)
(1.40387e-05 1.6314e-05 2.74853e-30 1.4066e-05 -5.70474e-35 1.405e-05)
(1.3965e-05 1.63509e-05 3.75542e-30 1.39909e-05 -6.18074e-26 1.39757e-05)
(1.39015e-05 1.63944e-05 8.68263e-29 1.39261e-05 -3.8887e-27 1.39116e-05)
(1.38477e-05 1.64437e-05 1.11398e-29 1.38709e-05 3.97194e-27 1.38572e-05)
(1.38031e-05 1.64983e-05 -6.42705e-29 1.38248e-05 -4.04877e-27 1.38119e-05)
(1.37669e-05 1.65577e-05 -4.03943e-29 1.37873e-05 -3.00299e-29 1.37752e-05)
(1.3739e-05 1.66212e-05 1.79359e-32 1.3758e-05 -2.83302e-26 1.37466e-05)
(1.37186e-05 1.66884e-05 -4.42044e-29 1.37363e-05 -3.04867e-26 1.37257e-05)
(1.37055e-05 1.67589e-05 -6.17306e-30 1.37219e-05 -2.05024e-27 1.3712e-05)
(1.36994e-05 1.6832e-05 1.8595e-29 1.37144e-05 -3.05169e-26 1.37052e-05)
(1.36998e-05 1.69077e-05 -1.04101e-29 1.37136e-05 3.25159e-26 1.37052e-05)
(1.37064e-05 1.69854e-05 5.10959e-31 1.37189e-05 -1.30073e-29 1.37112e-05)
(1.37188e-05 1.70649e-05 2.89639e-33 1.37301e-05 -2.02754e-27 1.37231e-05)
(1.3737e-05 1.71458e-05 -2.49956e-31 1.3747e-05 9.99891e-28 1.37407e-05)
(1.37609e-05 1.72281e-05 -6.74168e-29 1.37696e-05 -1.676e-29 1.37641e-05)
(1.37897e-05 1.73114e-05 -1.44573e-27 1.37973e-05 -1.69098e-27 1.37924e-05)
(1.38231e-05 1.73955e-05 4.81999e-29 1.38296e-05 -1.88458e-34 1.38253e-05)
(1.38609e-05 1.74802e-05 -3.66233e-28 1.38662e-05 -1.73367e-28 1.38626e-05)
(1.39025e-05 1.7565e-05 1.57382e-29 1.39067e-05 4.74919e-28 1.39038e-05)
(1.39485e-05 1.76498e-05 -1.37316e-29 1.39515e-05 -8.02717e-27 1.39492e-05)
(1.39985e-05 1.77343e-05 -3.72861e-28 1.40004e-05 -3.65817e-27 1.39988e-05)
(1.40524e-05 1.78184e-05 1.48178e-29 1.40532e-05 3.42631e-27 1.40522e-05)
(1.41101e-05 1.79019e-05 7.91442e-34 1.41098e-05 7.70186e-33 1.41095e-05)
(1.41718e-05 1.79847e-05 1.35922e-29 1.41702e-05 -3.58726e-31 1.41706e-05)
(1.42372e-05 1.80669e-05 3.79165e-28 1.42345e-05 1.12527e-27 1.42355e-05)
(1.43062e-05 1.8148e-05 -1.3903e-29 1.43024e-05 -1.06507e-28 1.43041e-05)
(1.43787e-05 1.8228e-05 2.44129e-30 1.43737e-05 -4.02306e-28 1.43761e-05)
(1.44547e-05 1.83067e-05 -2.45892e-30 1.44486e-05 8.5246e-30 1.44517e-05)
(1.45344e-05 1.8384e-05 5.0443e-30 1.4527e-05 7.81884e-28 1.45308e-05)
(1.46175e-05 1.84598e-05 -5.51594e-30 1.4609e-05 -3.87798e-28 1.46135e-05)
(1.47043e-05 1.85338e-05 -1.62005e-29 1.46945e-05 -4.83733e-30 1.46997e-05)
(1.47945e-05 1.8606e-05 -3.95437e-28 1.47835e-05 -1.23221e-28 1.47894e-05)
(1.48883e-05 1.86764e-05 -4.22591e-28 1.48761e-05 -1.23163e-28 1.48827e-05)
(1.49854e-05 1.87449e-05 -1.5698e-27 1.49719e-05 7.93654e-28 1.49793e-05)
(1.50856e-05 1.8811e-05 6.3059e-29 1.50709e-05 -3.8187e-29 1.5079e-05)
(1.5189e-05 1.88749e-05 6.25272e-29 1.51731e-05 -6.43452e-29 1.51819e-05)
(1.52958e-05 1.89364e-05 3.18419e-27 1.52786e-05 -1.84551e-26 1.52882e-05)
(1.54066e-05 1.89955e-05 -9.41035e-29 1.5388e-05 -1.71873e-26 1.53984e-05)
(1.55214e-05 1.90523e-05 1.11313e-29 1.55015e-05 1.62171e-26 1.55126e-05)
(1.56397e-05 1.91069e-05 1.45633e-29 1.56185e-05 2.1519e-34 1.56304e-05)
(1.57616e-05 1.91591e-05 8.2376e-28 1.57392e-05 -1.5492e-27 1.57518e-05)
(1.58875e-05 1.92088e-05 -4.20885e-29 1.58637e-05 1.70375e-27 1.58771e-05)
(1.60172e-05 1.92565e-05 -4.08667e-28 1.59922e-05 -6.70375e-29 1.60062e-05)
(1.61504e-05 1.93019e-05 -3.93193e-28 1.61242e-05 1.11429e-26 1.6139e-05)
(1.62872e-05 1.93452e-05 4.10872e-28 1.62598e-05 5.51211e-29 1.62752e-05)
(1.64274e-05 1.93861e-05 -5.04588e-30 1.63987e-05 -1.08195e-27 1.64149e-05)
(1.65708e-05 1.9425e-05 -4.08068e-31 1.6541e-05 -1.51934e-26 1.65578e-05)
(1.67173e-05 1.94615e-05 -4.58607e-29 1.66865e-05 -1.42516e-26 1.67039e-05)
(1.68665e-05 1.94954e-05 -3.64949e-28 1.68346e-05 -1.42689e-27 1.68527e-05)
(1.70191e-05 1.95273e-05 4.58106e-29 1.69862e-05 1.40822e-27 1.70048e-05)
(1.71744e-05 1.95571e-05 1.12574e-31 1.71406e-05 8.29134e-27 1.71597e-05)
(1.73322e-05 1.95846e-05 4.63452e-31 1.72975e-05 6.37933e-27 1.73171e-05)
(1.74919e-05 1.96098e-05 -9.0457e-31 1.74565e-05 -4.55418e-28 1.74765e-05)
(1.76522e-05 1.9632e-05 -8.65866e-28 1.7616e-05 4.35967e-28 1.76365e-05)
(1.78132e-05 1.96519e-05 -8.2177e-28 1.77765e-05 -1.03043e-27 1.77973e-05)
(1.79734e-05 1.96679e-05 -7.80351e-28 1.79362e-05 2.36688e-30 1.79573e-05)
(1.81333e-05 1.96814e-05 -4.29521e-29 1.80958e-05 3.58617e-28 1.81171e-05)
(1.82902e-05 1.96906e-05 2.42022e-30 1.82526e-05 -8.82891e-28 1.8274e-05)
(1.8444e-05 1.96958e-05 -8.4391e-28 1.84064e-05 5.49931e-28 1.84278e-05)
(1.85934e-05 1.96968e-05 -8.31495e-28 1.85561e-05 1.20037e-26 1.85773e-05)
(1.87367e-05 1.96927e-05 8.43525e-28 1.86999e-05 -4.9833e-28 1.87209e-05)
(1.88726e-05 1.96834e-05 3.40715e-30 1.88366e-05 4.61001e-28 1.88572e-05)
(1.89986e-05 1.96679e-05 0 1.89637e-05 0 1.89837e-05)
(1.91129e-05 1.96454e-05 8.71232e-30 1.90793e-05 -2.80805e-28 1.90986e-05)
(1.92137e-05 1.96162e-05 -1.64387e-27 1.91821e-05 3.58022e-28 1.92004e-05)
(1.92955e-05 1.95754e-05 -1.84695e-29 1.92661e-05 1.81436e-26 1.92831e-05)
(1.93598e-05 1.95252e-05 -1.13076e-28 1.93329e-05 7.04493e-29 1.93486e-05)
(1.93989e-05 1.94615e-05 2.0103e-29 1.93753e-05 -3.84766e-28 1.93892e-05)
(1.94125e-05 1.9383e-05 2.10363e-29 1.9392e-05 2.44594e-28 1.94043e-05)
(1.93958e-05 1.9288e-05 -2.17486e-29 1.93792e-05 6.44268e-27 1.93892e-05)
(1.93501e-05 1.91764e-05 4.06809e-28 1.93372e-05 4.58508e-29 1.93455e-05)
(1.92625e-05 1.90349e-05 -3.80996e-30 1.92525e-05 3.62355e-29 1.92586e-05)
(1.91869e-05 1.89104e-05 -1.64706e-32 1.91782e-05 1.93535e-39 1.91843e-05)
(1.85092e-05 7.94142e-06 3.80563e-29 1.85083e-05 -6.22179e-32 1.85073e-05)
(1.83597e-05 7.90397e-06 7.96235e-26 1.83606e-05 -9.13082e-28 1.83597e-05)
(1.8217e-05 7.86551e-06 3.91324e-27 1.82253e-05 3.14082e-28 1.82203e-05)
(1.80383e-05 7.81475e-06 -5.74935e-27 1.80547e-05 -5.61416e-28 1.80464e-05)
(1.7856e-05 7.75864e-06 -2.40326e-27 1.78786e-05 -4.01795e-26 1.78674e-05)
(1.76558e-05 7.69591e-06 9.96176e-27 1.7686e-05 5.23551e-26 1.76714e-05)
(1.7445e-05 7.62716e-06 2.98764e-25 1.74808e-05 -2.99759e-26 1.74637e-05)
(1.72264e-05 7.55414e-06 -4.58969e-27 1.72679e-05 7.43602e-29 1.72482e-05)
(1.70017e-05 7.47726e-06 -2.9177e-25 1.70481e-05 4.09628e-26 1.70262e-05)
(1.67749e-05 7.39778e-06 -4.71382e-27 1.68254e-05 1.005e-25 1.68017e-05)
(1.65487e-05 7.31679e-06 -2.88602e-25 1.66026e-05 -6.45346e-26 1.65775e-05)
(1.63258e-05 7.23545e-06 6.35258e-27 1.63826e-05 3.75523e-27 1.63562e-05)
(1.61077e-05 7.15432e-06 2.82239e-25 1.61668e-05 -6.26143e-26 1.61395e-05)
(1.58967e-05 7.07399e-06 1.11638e-26 1.59573e-05 5.29553e-28 1.59294e-05)
(1.56939e-05 6.99509e-06 -2.89095e-26 1.57555e-05 -1.50869e-25 1.57272e-05)
(1.55003e-05 6.91808e-06 1.28739e-27 1.55624e-05 -1.04864e-26 1.55341e-05)
(1.5317e-05 6.84343e-06 2.86231e-26 1.53792e-05 6.90288e-28 1.53508e-05)
(1.51441e-05 6.77134e-06 -1.76312e-26 1.52058e-05 -6.98101e-28 1.51778e-05)
(1.49823e-05 6.70233e-06 -1.18584e-25 1.50432e-05 3.20143e-26 1.50157e-05)
(1.48318e-05 6.63639e-06 -1.23277e-26 1.48916e-05 1.19576e-26 1.48646e-05)
(1.46928e-05 6.5738e-06 3.29718e-27 1.47511e-05 6.86922e-29 1.47249e-05)
(1.45651e-05 6.51461e-06 1.2692e-25 1.46217e-05 -3.43827e-26 1.45963e-05)
(1.44487e-05 6.45899e-06 -1.4282e-25 1.45035e-05 3.46515e-26 1.4479e-05)
(1.43429e-05 6.40671e-06 1.60278e-25 1.43956e-05 1.86579e-25 1.43721e-05)
(1.42478e-05 6.35798e-06 -1.82267e-26 1.42984e-05 1.19279e-25 1.42759e-05)
(1.41628e-05 6.31264e-06 4.92933e-28 1.42112e-05 -1.53644e-26 1.41898e-05)
(1.40877e-05 6.27066e-06 -3.31811e-27 1.41338e-05 1.40341e-25 1.41135e-05)
(1.4022e-05 6.23199e-06 -1.27517e-25 1.40656e-05 5.40808e-26 1.40464e-05)
(1.39652e-05 6.1965e-06 -3.4581e-27 1.40065e-05 -8.76309e-27 1.39884e-05)
(1.39171e-05 6.16412e-06 7.03254e-27 1.3956e-05 8.63794e-27 1.3939e-05)
(1.3877e-05 6.13475e-06 -7.12878e-27 1.39135e-05 1.2996e-25 1.38977e-05)
(1.38446e-05 6.10826e-06 -1.17247e-27 1.38788e-05 -1.39439e-25 1.3864e-05)
(1.38196e-05 6.08457e-06 -5.79169e-26 1.38514e-05 -8.68528e-26 1.38377e-05)
(1.38015e-05 6.06358e-06 -5.8358e-26 1.38311e-05 -4.60657e-26 1.38184e-05)
(1.379e-05 6.0451e-06 -3.48383e-27 1.38173e-05 -3.09084e-28 1.38057e-05)
(1.37847e-05 6.0291e-06 -5.80723e-26 1.38098e-05 2.40448e-26 1.37992e-05)
(1.37856e-05 6.01545e-06 6.5121e-26 1.38085e-05 -2.77653e-26 1.37989e-05)
(1.3792e-05 6.00413e-06 -1.90125e-27 1.38128e-05 6.99149e-26 1.38042e-05)
(1.38038e-05 5.99501e-06 -3.47556e-27 1.38226e-05 -3.26925e-28 1.38148e-05)
(1.38209e-05 5.98796e-06 1.86929e-27 1.38377e-05 1.61462e-28 1.38308e-05)
(1.38432e-05 5.9829e-06 -6.21152e-29 1.3858e-05 2.01261e-27 1.3852e-05)
(1.38701e-05 5.97993e-06 -2.74113e-28 1.3883e-05 -2.25592e-27 1.38779e-05)
(1.39014e-05 5.97895e-06 1.31629e-29 1.39124e-05 1.99185e-27 1.39082e-05)
(1.39369e-05 5.97997e-06 4.04022e-28 1.3946e-05 -3.08445e-26 1.39425e-05)
(1.39762e-05 5.98287e-06 4.52588e-28 1.39835e-05 -3.08328e-26 1.39809e-05)
(1.40195e-05 5.98761e-06 -1.72984e-26 1.40251e-05 6.30679e-27 1.40232e-05)
(1.40667e-05 5.99412e-06 -6.67826e-27 1.40705e-05 3.63153e-27 1.40694e-05)
(1.41177e-05 6.0024e-06 7.87591e-27 1.41196e-05 -2.67044e-27 1.41193e-05)
(1.41722e-05 6.01246e-06 -1.84327e-28 1.41723e-05 -5.68634e-28 1.41729e-05)
(1.42304e-05 6.02425e-06 4.01129e-29 1.42287e-05 1.12367e-28 1.423e-05)
(1.42923e-05 6.03783e-06 1.89384e-27 1.42887e-05 -4.59758e-27 1.42908e-05)
(1.43575e-05 6.05323e-06 -2.90997e-28 1.43522e-05 -1.73288e-29 1.43551e-05)
(1.44261e-05 6.0703e-06 -9.14727e-28 1.4419e-05 -8.8397e-28 1.44227e-05)
(1.44982e-05 6.0892e-06 6.13037e-29 1.44892e-05 1.29025e-26 1.44937e-05)
(1.45736e-05 6.10981e-06 1.83422e-27 1.45627e-05 9.13637e-28 1.45681e-05)
(1.46523e-05 6.13221e-06 -9.70895e-28 1.46396e-05 2.56993e-26 1.46457e-05)
(1.47344e-05 6.15641e-06 2.97894e-29 1.47197e-05 -4.49312e-29 1.47267e-05)
(1.48199e-05 6.18243e-06 4.08786e-28 1.48033e-05 -1.10693e-27 1.48111e-05)
(1.49085e-05 6.2103e-06 4.94616e-28 1.489e-05 -2.34797e-27 1.48987e-05)
(1.50004e-05 6.2401e-06 5.39878e-27 1.49799e-05 4.14288e-27 1.49894e-05)
(1.50952e-05 6.27177e-06 -8.44863e-29 1.50727e-05 -2.62128e-29 1.50831e-05)
(1.51931e-05 6.30536e-06 -1.05945e-27 1.51686e-05 4.07015e-26 1.51798e-05)
(1.5294e-05 6.34086e-06 -7.72722e-26 1.52674e-05 1.07186e-26 1.52796e-05)
(1.53985e-05 6.37821e-06 -6.76483e-26 1.53698e-05 -1.99484e-26 1.53829e-05)
(1.55063e-05 6.41736e-06 7.08307e-26 1.54756e-05 -1.78291e-26 1.54895e-05)
(1.56174e-05 6.45848e-06 -9.61863e-28 1.55846e-05 -2.30571e-26 1.55994e-05)
(1.57316e-05 6.50146e-06 -8.59614e-27 1.56966e-05 -6.19148e-26 1.57124e-05)
(1.5849e-05 6.54638e-06 7.92819e-27 1.58119e-05 -2.9481e-27 1.58287e-05)
(1.59698e-05 6.5931e-06 9.30044e-28 1.59306e-05 3.39764e-27 1.59482e-05)
(1.60934e-05 6.64175e-06 7.21127e-26 1.60521e-05 -5.48817e-26 1.60707e-05)
(1.62199e-05 6.69219e-06 -1.07e-27 1.61766e-05 4.10812e-26 1.61961e-05)
(1.63491e-05 6.74445e-06 -8.85853e-27 1.63038e-05 3.69674e-26 1.63241e-05)
(1.64809e-05 6.79844e-06 -1.38462e-25 1.64335e-05 1.05472e-26 1.64548e-05)
(1.66149e-05 6.85406e-06 -1.45875e-25 1.65656e-05 1.64356e-26 1.65877e-05)
(1.67509e-05 6.91122e-06 -1.51371e-26 1.66997e-05 2.75755e-27 1.67226e-05)
(1.68891e-05 6.96985e-06 1.67859e-26 1.68361e-05 -2.67496e-27 1.68599e-05)
(1.70291e-05 7.02981e-06 1.49451e-25 1.69744e-05 -7.45565e-27 1.69989e-05)
(1.71703e-05 7.09092e-06 1.49633e-25 1.7114e-05 2.02849e-26 1.71393e-05)
(1.73125e-05 7.15316e-06 -1.70784e-26 1.72547e-05 8.81671e-28 1.72806e-05)
(1.74544e-05 7.21617e-06 1.74939e-26 1.73951e-05 -8.39083e-28 1.74217e-05)
(1.75959e-05 7.28e-06 -1.51996e-25 1.75355e-05 1.0733e-27 1.75626e-05)
(1.77357e-05 7.34401e-06 9.64734e-28 1.76744e-05 -2.78068e-27 1.77019e-05)
(1.7874e-05 7.40813e-06 -1.72179e-26 1.78119e-05 -8.29543e-27 1.78397e-05)
(1.80086e-05 7.47185e-06 3.42974e-26 1.79461e-05 -1.19705e-27 1.79741e-05)
(1.81391e-05 7.53476e-06 -1.55386e-26 1.80764e-05 1.07283e-27 1.81045e-05)
(1.82644e-05 7.59641e-06 -3.1411e-25 1.8202e-05 -1.1795e-26 1.82299e-05)
(1.83828e-05 7.65614e-06 7.2722e-27 1.83211e-05 -7.02346e-29 1.83487e-05)
(1.84934e-05 7.71348e-06 -8.67428e-27 1.84328e-05 2.05188e-27 1.84599e-05)
(1.85939e-05 7.76772e-06 -3.82688e-29 1.8535e-05 -1.04786e-27 1.85613e-05)
(1.86828e-05 7.81811e-06 4.45328e-27 1.86261e-05 -6.0843e-28 1.86513e-05)
(1.87585e-05 7.86404e-06 -1.58572e-27 1.87049e-05 3.80062e-26 1.87288e-05)
(1.88171e-05 7.90395e-06 -3.25011e-25 1.87671e-05 -1.74178e-26 1.87892e-05)
(1.88585e-05 7.93737e-06 -1.95832e-27 1.88127e-05 -3.65903e-26 1.8833e-05)
(1.88784e-05 7.96377e-06 6.73204e-27 1.88377e-05 3.45732e-26 1.88555e-05)
(1.8875e-05 7.98132e-06 -4.10619e-27 1.88396e-05 -4.43763e-28 1.8855e-05)
(1.88467e-05 7.99078e-06 -1.60609e-25 1.88172e-05 -5.76748e-27 1.88297e-05)
(1.87916e-05 7.99003e-06 -1.89424e-27 1.87688e-05 1.1157e-26 1.87784e-05)
(1.8707e-05 7.97917e-06 -1.11353e-27 1.8688e-05 1.55722e-30 1.86954e-05)
(1.86216e-05 7.96314e-06 -1.79605e-30 1.86069e-05 4.93215e-32 1.86132e-05)
(1.81797e-05 8.08121e-06 -6.30572e-29 1.81721e-05 1.32726e-32 1.81753e-05)
(1.80341e-05 8.03648e-06 -9.13487e-26 1.80311e-05 -1.33262e-27 1.80332e-05)
(1.78857e-05 7.9868e-06 6.42836e-27 1.78959e-05 -1.92325e-26 1.78906e-05)
(1.77129e-05 7.9303e-06 -8.47493e-27 1.77375e-05 -3.01302e-26 1.77255e-05)
(1.75345e-05 7.86603e-06 -8.75928e-25 1.75705e-05 -4.47133e-26 1.75526e-05)
(1.73443e-05 7.79836e-06 8.69035e-25 1.73936e-05 -5.30169e-26 1.73691e-05)
(1.7146e-05 7.7251e-06 -3.48796e-25 1.72059e-05 -1.7925e-25 1.71762e-05)
(1.69425e-05 7.6487e-06 7.05999e-27 1.70128e-05 1.61131e-25 1.69779e-05)
(1.67356e-05 7.56977e-06 3.39381e-25 1.6815e-05 -1.24326e-25 1.67756e-05)
(1.65283e-05 7.48918e-06 8.0747e-25 1.66156e-05 1.1948e-25 1.65722e-05)
(1.6323e-05 7.40807e-06 -5.03104e-25 1.64172e-05 -5.18198e-26 1.63703e-05)
(1.6122e-05 7.32735e-06 2.24504e-26 1.62219e-05 3.3553e-28 1.61721e-05)
(1.59265e-05 7.24776e-06 -3.18965e-25 1.60312e-05 -9.85137e-26 1.59791e-05)
(1.57382e-05 7.16957e-06 -4.60087e-27 1.58466e-05 -1.65302e-26 1.57926e-05)
(1.55579e-05 7.09334e-06 -7.30544e-25 1.56689e-05 1.75797e-25 1.56136e-05)
(1.53865e-05 7.01934e-06 -3.51646e-26 1.54991e-05 -7.19822e-28 1.54429e-05)
(1.52245e-05 6.94809e-06 6.0768e-28 1.53378e-05 -1.46212e-26 1.52813e-05)
(1.50722e-05 6.87961e-06 1.95305e-27 1.51854e-05 4.04225e-25 1.51289e-05)
(1.49301e-05 6.81429e-06 1.07672e-25 1.50423e-05 -3.26461e-25 1.49862e-05)
(1.47981e-05 6.7522e-06 4.00692e-26 1.49088e-05 -4.47831e-25 1.48535e-05)
(1.46765e-05 6.69347e-06 -3.0177e-27 1.47851e-05 -4.18371e-25 1.47308e-05)
(1.4565e-05 6.63814e-06 -1.01286e-25 1.4671e-05 -1.35611e-25 1.4618e-05)
(1.44635e-05 6.58635e-06 1.15218e-25 1.45667e-05 5.62674e-25 1.4515e-05)
(1.43716e-05 6.53785e-06 5.72259e-25 1.44714e-05 -2.88809e-25 1.44215e-05)
(1.42893e-05 6.49281e-06 3.41141e-25 1.43855e-05 -8.4302e-26 1.43374e-05)
(1.42161e-05 6.45108e-06 -3.85438e-26 1.43085e-05 -1.75518e-26 1.42622e-05)
(1.41517e-05 6.41264e-06 3.93675e-25 1.424e-05 -3.68136e-25 1.41957e-05)
(1.40957e-05 6.37734e-06 1.30305e-25 1.41799e-05 7.37584e-26 1.41377e-05)
(1.40477e-05 6.34517e-06 -2.29639e-26 1.41277e-05 2.07275e-26 1.40876e-05)
(1.40074e-05 6.316e-06 2.81182e-26 1.40832e-05 -4.30046e-27 1.40452e-05)
(1.39745e-05 6.28973e-06 3.34576e-25 1.40461e-05 -3.79574e-25 1.40102e-05)
(1.39485e-05 6.26628e-06 -3.75116e-25 1.40158e-05 4.02677e-25 1.39821e-05)
(1.39292e-05 6.24553e-06 -2.28105e-25 1.39923e-05 1.44823e-25 1.39607e-05)
(1.39162e-05 6.22742e-06 -1.16419e-25 1.39751e-05 9.37175e-26 1.39455e-05)
(1.39091e-05 6.2118e-06 4.33191e-27 1.39639e-05 1.10996e-26 1.39364e-05)
(1.39078e-05 6.19853e-06 5.67967e-26 1.39586e-05 1.78506e-25 1.39331e-05)
(1.3912e-05 6.1876e-06 -6.5942e-26 1.39588e-05 8.83065e-26 1.39353e-05)
(1.39213e-05 6.17895e-06 1.81873e-25 1.39642e-05 6.77075e-26 1.39427e-05)
(1.39355e-05 6.17246e-06 -4.3508e-27 1.39747e-05 1.10059e-26 1.3955e-05)
(1.39547e-05 6.16806e-06 1.09077e-28 1.39901e-05 1.27197e-25 1.39723e-05)
(1.39786e-05 6.1656e-06 4.59183e-27 1.40103e-05 8.4919e-27 1.39943e-05)
(1.40068e-05 6.16524e-06 -9.71333e-27 1.4035e-05 -4.60352e-27 1.40208e-05)
(1.40392e-05 6.16693e-06 3.18873e-27 1.40638e-05 6.47411e-26 1.40514e-05)
(1.40755e-05 6.17055e-06 -8.7551e-26 1.40966e-05 2.75053e-26 1.4086e-05)
(1.41157e-05 6.17612e-06 -8.32627e-26 1.41333e-05 -4.60502e-27 1.41244e-05)
(1.41595e-05 6.18355e-06 1.94713e-26 1.41737e-05 9.29811e-27 1.41666e-05)
(1.42071e-05 6.19282e-06 8.00817e-27 1.42179e-05 7.49729e-27 1.42124e-05)
(1.42582e-05 6.20386e-06 -7.74409e-27 1.42656e-05 -5.71935e-27 1.42618e-05)
(1.43128e-05 6.21674e-06 -1.33256e-27 1.43167e-05 -7.34115e-29 1.43147e-05)
(1.43709e-05 6.23132e-06 7.69126e-29 1.43713e-05 -2.08285e-28 1.4371e-05)
(1.44323e-05 6.24775e-06 -1.30807e-26 1.44293e-05 2.23639e-27 1.44308e-05)
(1.44971e-05 6.26603e-06 2.18678e-28 1.44906e-05 1.39099e-26 1.44938e-05)
(1.45651e-05 6.2861e-06 -1.70293e-27 1.45551e-05 4.08826e-28 1.45601e-05)
(1.46365e-05 6.30796e-06 4.40622e-26 1.46229e-05 -1.14449e-26 1.46297e-05)
(1.4711e-05 6.33163e-06 3.29921e-27 1.46938e-05 6.84161e-28 1.47024e-05)
(1.47887e-05 6.35711e-06 9.36343e-26 1.47679e-05 -2.24608e-26 1.47783e-05)
(1.48697e-05 6.38446e-06 -1.65706e-27 1.48452e-05 2.92073e-27 1.48575e-05)
(1.49538e-05 6.41362e-06 -5.24253e-27 1.49256e-05 -6.15986e-27 1.49397e-05)
(1.5041e-05 6.44466e-06 -9.99478e-27 1.50091e-05 4.66395e-26 1.50251e-05)
(1.51312e-05 6.47771e-06 1.04052e-26 1.50954e-05 -8.47374e-26 1.51134e-05)
(1.52243e-05 6.51267e-06 2.33086e-27 1.51847e-05 -2.53131e-27 1.52046e-05)
(1.53204e-05 6.54949e-06 1.93668e-25 1.52768e-05 -2.918e-26 1.52986e-05)
(1.54193e-05 6.5882e-06 6.00168e-26 1.53717e-05 1.85252e-26 1.53956e-05)
(1.55213e-05 6.62874e-06 -1.1211e-25 1.54696e-05 5.51667e-26 1.54955e-05)
(1.56264e-05 6.67111e-06 -9.62851e-26 1.55706e-05 4.77883e-26 1.55986e-05)
(1.57342e-05 6.71537e-06 -1.46456e-25 1.56745e-05 2.85725e-26 1.57045e-05)
(1.58449e-05 6.76144e-06 -3.95118e-25 1.5781e-05 5.39248e-26 1.58131e-05)
(1.59583e-05 6.80926e-06 -1.76903e-26 1.58904e-05 -9.09436e-27 1.59245e-05)
(1.60744e-05 6.85894e-06 1.82489e-26 1.60025e-05 -9.40213e-26 1.60386e-05)
(1.6193e-05 6.91027e-06 -4.57227e-25 1.61171e-05 2.55448e-26 1.61552e-05)
(1.63139e-05 6.96331e-06 3.90721e-25 1.62341e-05 -3.7517e-26 1.62742e-05)
(1.6437e-05 7.01799e-06 3.86137e-25 1.63533e-05 -3.26662e-26 1.63953e-05)
(1.65619e-05 7.07417e-06 1.11588e-25 1.64745e-05 2.09203e-26 1.65184e-05)
(1.66884e-05 7.13174e-06 2.02495e-25 1.65974e-05 2.02765e-26 1.66431e-05)
(1.68163e-05 7.19058e-06 4.41522e-26 1.67216e-05 2.01592e-27 1.67691e-05)
(1.69454e-05 7.25047e-06 -4.58467e-26 1.68474e-05 -2.09185e-27 1.68966e-05)
(1.70754e-05 7.31144e-06 -1.60959e-25 1.69742e-05 -1.15457e-26 1.7025e-05)
(1.72057e-05 7.37309e-06 6.49514e-25 1.71015e-05 -3.68477e-26 1.71538e-05)
(1.7336e-05 7.43549e-06 4.57295e-26 1.7229e-05 3.48649e-27 1.72827e-05)
(1.74651e-05 7.49816e-06 -4.66457e-26 1.73555e-05 -6.64042e-28 1.74105e-05)
(1.75928e-05 7.56104e-06 1.67659e-25 1.74812e-05 1.02436e-26 1.75372e-05)
(1.7718e-05 7.62353e-06 8.87934e-25 1.76045e-05 9.6606e-28 1.76615e-05)
(1.78403e-05 7.68543e-06 7.99774e-25 1.77256e-05 2.28035e-26 1.77831e-05)
(1.79583e-05 7.74628e-06 4.9496e-26 1.78427e-05 1.41237e-27 1.79007e-05)
(1.80709e-05 7.8055e-06 -4.93456e-26 1.79551e-05 5.98013e-28 1.80132e-05)
(1.81773e-05 7.86269e-06 3.74964e-25 1.80621e-05 -1.57211e-26 1.81198e-05)
(1.82761e-05 7.91715e-06 1.22828e-27 1.81621e-05 5.62733e-26 1.82192e-05)
(1.8366e-05 7.96834e-06 -5.02696e-26 1.82542e-05 1.55781e-27 1.83102e-05)
(1.84454e-05 8.01572e-06 2.49871e-26 1.83368e-05 -1.06664e-28 1.83912e-05)
(1.85127e-05 8.05832e-06 1.49198e-26 1.84081e-05 -7.51936e-26 1.84605e-05)
(1.85666e-05 8.09578e-06 -9.14967e-25 1.84676e-05 -3.61953e-26 1.85172e-05)
(1.8604e-05 8.12687e-06 3.65279e-25 1.85114e-05 -2.63905e-26 1.85578e-05)
(1.86241e-05 8.1504e-06 9.10679e-25 1.8539e-05 3.55103e-26 1.85817e-05)
(1.86247e-05 8.16719e-06 -9.12939e-25 1.85484e-05 -3.32186e-26 1.85865e-05)
(1.8603e-05 8.17404e-06 1.09513e-26 1.85361e-05 -6.6507e-26 1.85697e-05)
(1.85595e-05 8.17359e-06 1.66931e-25 1.85027e-05 1.96306e-26 1.8531e-05)
(1.84907e-05 8.16173e-06 -4.52721e-25 1.8445e-05 -1.15884e-26 1.84681e-05)
(1.83996e-05 8.1416e-06 -5.68163e-28 1.8361e-05 8.36778e-27 1.838e-05)
(1.82991e-05 8.11066e-06 -3.17282e-30 1.827e-05 -2.02875e-29 1.82852e-05)
(1.79207e-05 8.1356e-06 -1.59685e-29 1.79094e-05 7.71391e-32 1.79145e-05)
(1.77713e-05 8.08238e-06 -1.00606e-27 1.77687e-05 1.40845e-27 1.77706e-05)
(1.7614e-05 8.02237e-06 -1.16528e-24 1.76303e-05 1.85258e-26 1.76219e-05)
(1.74401e-05 7.95971e-06 -1.18802e-24 1.74775e-05 2.93608e-26 1.74591e-05)
(1.72605e-05 7.88822e-06 -1.32806e-24 1.73149e-05 5.13667e-26 1.72878e-05)
(1.70743e-05 7.81659e-06 -9.97999e-25 1.71474e-05 -1.86985e-25 1.71109e-05)
(1.68823e-05 7.73931e-06 -2.24009e-24 1.69712e-05 4.51144e-25 1.69269e-05)
(1.66878e-05 7.66035e-06 2.22835e-24 1.67918e-05 -1.54701e-25 1.67398e-05)
(1.64924e-05 7.57992e-06 -2.19683e-24 1.66098e-05 1.19182e-25 1.65512e-05)
(1.62985e-05 7.49914e-06 1.28254e-24 1.64276e-05 -3.47666e-25 1.63631e-05)
(1.61084e-05 7.41888e-06 -1.26911e-24 1.62476e-05 3.17136e-25 1.6178e-05)
(1.59239e-05 7.34009e-06 7.16548e-27 1.60718e-05 -5.19732e-27 1.59978e-05)
(1.57462e-05 7.26313e-06 -6.43506e-28 1.59013e-05 8.46146e-26 1.58237e-05)
(1.55763e-05 7.18849e-06 -4.96247e-26 1.5737e-05 6.54355e-25 1.56566e-05)
(1.54149e-05 7.11643e-06 9.251e-25 1.55797e-05 2.19936e-25 1.54972e-05)
(1.52625e-05 7.04709e-06 -1.08163e-26 1.54298e-05 -9.30724e-27 1.53461e-05)
(1.51195e-05 6.98087e-06 2.43007e-26 1.52881e-05 4.81188e-26 1.52037e-05)
(1.4986e-05 6.91777e-06 1.94105e-24 1.51546e-05 -3.96566e-25 1.50702e-05)
(1.48622e-05 6.85798e-06 -1.8853e-24 1.50296e-05 3.41251e-25 1.49458e-05)
(1.4748e-05 6.80155e-06 -2.03842e-24 1.49133e-05 -6.06684e-26 1.48305e-05)
(1.46434e-05 6.7485e-06 -1.77024e-24 1.48058e-05 4.19092e-25 1.47244e-05)
(1.45482e-05 6.69888e-06 -1.62586e-25 1.47069e-05 4.9745e-26 1.46274e-05)
(1.44623e-05 6.65275e-06 1.86466e-24 1.46167e-05 -9.86117e-25 1.45393e-05)
(1.43852e-05 6.60993e-06 -7.15808e-25 1.45348e-05 -2.26022e-25 1.44598e-05)
(1.43168e-05 6.57035e-06 -3.24195e-25 1.44611e-05 -2.04049e-25 1.43887e-05)
(1.42567e-05 6.53404e-06 -7.15821e-26 1.43953e-05 5.20272e-26 1.43258e-05)
(1.42045e-05 6.50083e-06 -1.29532e-24 1.43372e-05 3.71148e-26 1.42707e-05)
(1.416e-05 6.47065e-06 -2.54629e-26 1.42865e-05 -1.36552e-25 1.42231e-05)
(1.41227e-05 6.44344e-06 5.37256e-26 1.4243e-05 1.22469e-26 1.41827e-05)
(1.40924e-05 6.41908e-06 -2.80043e-26 1.42064e-05 5.50393e-25 1.41492e-05)
(1.40687e-05 6.39746e-06 -1.24242e-24 1.41763e-05 3.49868e-25 1.41223e-05)
(1.40514e-05 6.37852e-06 1.35203e-24 1.41526e-05 2.28271e-25 1.41018e-05)
(1.40399e-05 6.36217e-06 2.98761e-25 1.41349e-05 1.04253e-25 1.40872e-05)
(1.40342e-05 6.34825e-06 1.53992e-25 1.4123e-05 6.07957e-26 1.40784e-05)
(1.40339e-05 6.33675e-06 3.0802e-26 1.41165e-05 8.53978e-28 1.4075e-05)
(1.40388e-05 6.32752e-06 4.48929e-25 1.41154e-05 1.1399e-25 1.40769e-05)
(1.40487e-05 6.32048e-06 4.34622e-25 1.41193e-05 -8.00871e-26 1.40838e-05)
(1.40632e-05 6.31562e-06 2.19542e-25 1.41281e-05 -2.22776e-25 1.40955e-05)
(1.40824e-05 6.31283e-06 3.02701e-26 1.41415e-05 8.62201e-28 1.41118e-05)
(1.41059e-05 6.31205e-06 4.26408e-25 1.41594e-05 -2.48882e-25 1.41325e-05)
(1.41338e-05 6.31325e-06 1.63917e-26 1.41818e-05 -1.01757e-26 1.41577e-05)
(1.41657e-05 6.31642e-06 -8.93595e-27 1.42083e-05 -1.28231e-25 1.41869e-05)
(1.42015e-05 6.32153e-06 2.22292e-25 1.42387e-05 -6.16303e-26 1.422e-05)
(1.42411e-05 6.32864e-06 8.86161e-26 1.4273e-05 4.41886e-26 1.42569e-05)
(1.42841e-05 6.33763e-06 -1.93265e-26 1.43109e-05 7.63203e-26 1.42974e-05)
(1.43308e-05 6.34841e-06 -6.20752e-27 1.43523e-05 4.91029e-26 1.43415e-05)
(1.43809e-05 6.36105e-06 9.69493e-27 1.43973e-05 2.84461e-26 1.4389e-05)
(1.44344e-05 6.37548e-06 -3.4133e-27 1.44455e-05 -2.83901e-26 1.44399e-05)
(1.44911e-05 6.39169e-06 4.97934e-29 1.44971e-05 7.38265e-28 1.4494e-05)
(1.45511e-05 6.4096e-06 -5.51617e-28 1.45518e-05 7.49998e-28 1.45514e-05)
(1.46143e-05 6.42926e-06 1.35663e-26 1.46098e-05 -7.4761e-27 1.4612e-05)
(1.46808e-05 6.45076e-06 5.57364e-26 1.4671e-05 -1.3511e-26 1.46759e-05)
(1.47503e-05 6.47409e-06 -1.83903e-27 1.47352e-05 -2.63329e-26 1.47427e-05)
(1.48229e-05 6.49915e-06 -4.75566e-26 1.48025e-05 -1.80335e-26 1.48127e-05)
(1.48985e-05 6.52601e-06 5.68334e-27 1.48727e-05 -8.68776e-28 1.48856e-05)
(1.49772e-05 6.5547e-06 -1.0254e-25 1.4946e-05 1.42756e-26 1.49616e-05)
(1.50589e-05 6.58517e-06 1.46749e-26 1.50221e-05 9.46378e-26 1.50406e-05)
(1.51437e-05 6.61749e-06 -2.35745e-26 1.51012e-05 9.82041e-26 1.51225e-05)
(1.52313e-05 6.65167e-06 2.38415e-25 1.51832e-05 -3.71261e-26 1.52073e-05)
(1.53218e-05 6.68772e-06 -4.52802e-25 1.52678e-05 7.00526e-26 1.52949e-05)
(1.5415e-05 6.7256e-06 -1.01934e-26 1.53552e-05 -7.82348e-26 1.53852e-05)
(1.55109e-05 6.76535e-06 -1.70841e-25 1.54451e-05 -5.59802e-26 1.54781e-05)
(1.56094e-05 6.80686e-06 -4.98663e-26 1.55376e-05 -2.14436e-26 1.55736e-05)
(1.57106e-05 6.8501e-06 2.05074e-25 1.56328e-05 1.7837e-25 1.56718e-05)
(1.58145e-05 6.89503e-06 5.03234e-25 1.57306e-05 -4.3882e-26 1.57727e-05)
(1.59208e-05 6.94169e-06 2.01487e-25 1.58308e-05 3.27724e-26 1.5876e-05)
(1.60295e-05 6.99008e-06 4.04717e-25 1.59335e-05 7.74476e-26 1.59816e-05)
(1.61405e-05 7.03997e-06 -6.66865e-26 1.60384e-05 1.22153e-25 1.60896e-05)
(1.62536e-05 7.09147e-06 -9.17947e-25 1.61455e-05 9.10559e-26 1.61997e-05)
(1.63686e-05 7.14443e-06 4.19353e-25 1.62546e-05 7.75872e-26 1.63118e-05)
(1.64854e-05 7.19885e-06 -4.24508e-25 1.63656e-05 1.15205e-25 1.64257e-05)
(1.66036e-05 7.25457e-06 -4.19602e-25 1.64781e-05 -4.21529e-26 1.65411e-05)
(1.6723e-05 7.31149e-06 2.447e-27 1.6592e-05 -3.36845e-26 1.66578e-05)
(1.68434e-05 7.36946e-06 -2.93955e-30 1.6707e-05 -1.57473e-26 1.67754e-05)
(1.69642e-05 7.42827e-06 -1.39073e-30 1.68227e-05 -3.72825e-27 1.68937e-05)
(1.70854e-05 7.48769e-06 1.45554e-30 1.6939e-05 3.72337e-27 1.70124e-05)
(1.72066e-05 7.54778e-06 -1.83058e-27 1.70555e-05 7.85037e-26 1.71313e-05)
(1.73271e-05 7.60802e-06 -1.01229e-24 1.71717e-05 -2.57904e-26 1.72497e-05)
(1.74464e-05 7.66845e-06 1.24209e-25 1.72871e-05 -3.57082e-26 1.7367e-05)
(1.75638e-05 7.72851e-06 3.78976e-28 1.74008e-05 -7.53961e-28 1.74826e-05)
(1.76786e-05 7.7882e-06 2.16454e-24 1.75127e-05 -1.42198e-26 1.75959e-05)
(1.77898e-05 7.84683e-06 -9.22962e-25 1.76216e-05 9.96032e-27 1.7706e-05)
(1.78969e-05 7.90412e-06 -3.00928e-24 1.77271e-05 3.3658e-28 1.78123e-05)
(1.79985e-05 7.95965e-06 -6.46413e-26 1.78278e-05 1.53447e-27 1.79135e-05)
(1.80938e-05 8.01272e-06 -6.46415e-26 1.79231e-05 -1.22626e-27 1.80087e-05)
(1.81817e-05 8.063e-06 -6.30098e-26 1.80122e-05 1.77248e-26 1.80973e-05)
(1.82609e-05 8.10985e-06 -2.15362e-24 1.80937e-05 -5.2898e-26 1.81776e-05)
(1.83304e-05 8.15263e-06 -6.9888e-26 1.81667e-05 -1.39611e-25 1.82488e-05)
(1.83886e-05 8.1909e-06 -4.44717e-27 1.82299e-05 1.35851e-27 1.83095e-05)
(1.84342e-05 8.2237e-06 2.32322e-24 1.82819e-05 7.04357e-26 1.83583e-05)
(1.84659e-05 8.25077e-06 1.02396e-24 1.8322e-05 -5.48994e-26 1.83942e-05)
(1.84815e-05 8.27135e-06 4.20898e-27 1.83472e-05 -1.35881e-25 1.84145e-05)
(1.84795e-05 8.28368e-06 -1.03598e-24 1.83566e-05 5.21456e-26 1.84183e-05)
(1.84595e-05 8.2896e-06 1.03386e-24 1.83492e-05 -4.92209e-26 1.84045e-05)