/*--------------------------------*- C++ -*----------------------------------*\
| =========                 |                                                 |
| \\      /  F ield         | OpenFOAM: The Open Source CFD Toolbox           |
|  \\    /   O peration     | Version:  2306                                  |
|   \\  /    A nd           | Website:  www.openfoam.com                      |
|    \\/     M anipulation  |                                                 |
\*---------------------------------------------------------------------------*/
// * * * * * * * * * * * * * * * * * * * * * * * * * * * * * * * * * * * * * //
FoamFile
{
    version         2;
    format          ascii;
    class           volSymmTensorField;
    location        "0";
    object          S;
}

dimensions      [ 0 0 -1 0 0 0 0 ];

internalField   nonuniform List<symmTensor> 
14751
(
(3.11127e-05 -0.639206 9.5662e-33 -2.69044e-05 1.90366e-27 0)
(5.93684e-05 -0.638545 1.40047e-25 1.80689e-05 -3.13185e-23 0)
(0.000110697 -0.638499 5.30881e-23 -0.000114258 -1.86807e-24 3.13907e-46)
(0.000190813 -0.635958 -1.03746e-22 -0.000186768 -1.93722e-25 -2.63195e-47)
(0.000239047 -0.633224 5.07658e-23 -0.000271791 1.41817e-23 -2.40859e-45)
(0.00030993 -0.628935 -2.92282e-24 -0.000361073 -2.79385e-23 1.53653e-50)
(0.000358023 -0.62385 2.40208e-24 -0.000427355 -1.05978e-21 -1.53648e-50)
(0.000405987 -0.617907 -2.5276e-23 -0.000495391 -2.28289e-24 -1.71417e-46)
(0.000446036 -0.611163 -2.88947e-25 -0.000550389 1.46932e-21 -1.8966e-47)
(0.000477089 -0.603819 -7.93217e-26 -0.000596044 2.49187e-23 -8.09286e-50)
(0.00050201 -0.595957 -3.07699e-25 -0.000633365 1.90138e-21 -2.43755e-52)
(0.000520206 -0.587719 3.04715e-25 -0.000662316 1.86047e-25 2.4376e-52)
(0.000532245 -0.579186 -6.09992e-25 -0.000683367 -2.27844e-21 -2.53528e-51)
(0.000537631 -0.57047 1.84675e-24 -0.000695585 -1.58128e-22 2.53545e-51)
(0.000537459 -0.561652 4.70319e-23 -0.000700937 3.37111e-22 -5.64983e-44)
(0.000532369 -0.552831 -2.43916e-24 -0.000698687 9.2759e-24 -4.23938e-47)
(0.000523464 -0.544085 -2.16578e-23 -0.000692399 -3.65992e-22 -3.05845e-44)
(0.000510905 -0.535474 -4.89984e-25 -0.000679512 1.82427e-22 -4.53156e-47)
(0.000495209 -0.527075 5.9107e-25 -0.000663409 1.35811e-21 1.40276e-48)
(0.000477517 -0.518916 -4.79882e-25 -0.00064334 1.95907e-22 4.69029e-48)
(0.000457763 -0.511044 2.65838e-24 -0.000621051 9.32798e-25 -1.14202e-47)
(0.000436942 -0.503488 -1.57125e-24 -0.000596067 -1.67274e-21 -1.75277e-44)
(0.000415621 -0.496266 2.03264e-24 -0.000571168 1.91527e-21 -2.00619e-44)
(0.000393382 -0.489385 -2.21757e-24 -0.000543599 -2.15186e-21 -2.25303e-44)
(0.00037084 -0.482873 -2.37868e-24 -0.000516332 2.14187e-22 2.23364e-45)
(0.000348451 -0.476716 2.08043e-24 -0.000488352 3.87296e-25 -5.64362e-48)
(0.00032611 -0.470927 -7.93401e-26 -0.000460652 1.64675e-30 0)
(0.000304233 -0.465495 -1.06913e-25 -0.000432958 1.7596e-21 0)
(0.000282803 -0.460421 -2.43844e-24 -0.000405772 1.0921e-22 1.14406e-45)
(0.000262036 -0.455691 -3.08709e-25 -0.000379228 -1.10071e-22 3.448e-48)
(0.000241823 -0.451297 1.75806e-24 -0.000353349 1.1075e-22 -5.83534e-46)
(0.000222472 -0.44723 1.09107e-24 -0.000328232 8.11119e-25 -4.24623e-48)
(0.000203832 -0.443475 -4.78555e-28 -0.000303943 7.55887e-22 0)
(0.000185849 -0.440024 1.16554e-24 -0.000280468 8.03842e-22 -4.21037e-45)
(0.000168575 -0.436862 1.60916e-25 -0.00025776 5.34446e-23 4.1699e-49)
(0.000151952 -0.433974 -4.79429e-25 -0.000235806 7.86805e-22 -8.39951e-49)
(0.000135995 -0.431352 2.65583e-25 -0.000214627 -8.29551e-22 4.22953e-49)
(0.000120906 -0.428984 -1.29048e-26 -0.000194414 3.28511e-25 0)
(0.000106063 -0.426862 -7.24504e-29 -0.000174539 5.07168e-23 0)
(9.17652e-05 -0.424969 6.1953e-27 -0.000155631 -2.47829e-23 0)
(7.81094e-05 -0.423299 1.65645e-24 -0.000137162 4.11798e-25 -2.49671e-47)
(6.52824e-05 -0.421849 3.523e-23 -0.000119563 4.12063e-23 -6.88078e-45)
(5.31582e-05 -0.420613 -1.16545e-24 -0.000102903 4.55682e-30 0)
(4.12944e-05 -0.41959 8.79095e-24 -8.64251e-05 4.16145e-24 -1.74337e-46)
(2.97935e-05 -0.418768 -3.75215e-25 -7.04095e-05 -1.13226e-23 0)
(1.81915e-05 -0.418142 3.25316e-25 -5.44056e-05 1.90172e-22 1.42564e-48)
(6.79465e-06 -0.417705 8.7822e-24 -3.84905e-05 8.6163e-23 -3.61185e-45)
(-4.40456e-06 -0.417459 -3.47159e-25 -2.28703e-05 -8.02735e-23 -3.30672e-52)
(-1.56012e-05 -0.417396 -1.84531e-29 -7.05461e-06 -1.79575e-28 2.2619e-53)
(-2.69472e-05 -0.417523 -3.1555e-25 8.68238e-06 8.32797e-27 6.51456e-49)
(-3.78905e-05 -0.417837 -8.76906e-24 2.41489e-05 -2.60243e-23 -1.09115e-45)
(-4.87343e-05 -0.418334 3.20483e-25 3.95055e-05 2.45513e-24 0)
(-5.96255e-05 -0.419015 -5.6119e-26 5.49178e-05 9.24799e-24 -2.54608e-53)
(-7.07195e-05 -0.419881 5.63974e-26 7.05478e-05 -1.95519e-25 2.5461e-53)
(-8.19148e-05 -0.420933 -1.15498e-25 8.64241e-05 -1.79026e-23 -5.74233e-53)
(-9.32152e-05 -0.422173 1.26149e-25 0.00010235 8.8689e-24 5.74239e-53)
(-0.000104715 -0.423604 3.70276e-25 0.000118686 1.10561e-25 -4.20732e-48)
(-0.000116367 -0.42523 9.03749e-24 0.000135103 2.81614e-24 -1.13854e-46)
(-0.000127968 -0.427053 9.66294e-24 0.0001516 2.81623e-24 -1.18073e-46)
(-0.000139724 -0.429082 3.59336e-23 0.000168423 -1.81672e-23 3.01289e-45)
(-0.000151544 -0.431321 -1.44589e-24 0.000185218 8.75596e-25 3.06979e-47)
(-0.000163961 -0.433775 -1.43697e-24 0.000202862 1.47875e-24 2.38327e-49)
(-0.000176808 -0.436443 -7.33888e-23 0.00022094 4.25349e-22 1.42525e-43)
(-0.0001902 -0.439324 2.17641e-24 0.000239164 3.97504e-22 5.40877e-47)
(-0.000203879 -0.442423 -2.58486e-25 0.000258102 -3.76585e-22 2.07369e-49)
(-0.000217346 -0.44575 -3.39751e-25 0.000276747 -5.02024e-30 0)
(-0.000231226 -0.449306 -1.93183e-23 0.000295846 3.63309e-23 3.02248e-45)
(-0.000245376 -0.453096 9.92781e-25 0.000315097 -4.0188e-23 2.17e-47)
(-0.000259661 -0.457121 9.70116e-24 0.000334412 1.59137e-24 -6.68291e-47)
(-0.000273842 -0.461388 9.3988e-24 0.00035369 -2.66358e-22 1.11609e-44)
(-0.000288076 -0.4659 -9.89523e-24 0.000372877 -1.32751e-24 -5.57894e-47)
(-0.000302358 -0.470656 1.22504e-25 0.000392163 2.62676e-23 0)
(-0.000316691 -0.475661 9.99242e-27 0.000411283 3.72043e-22 0)
(-0.000330771 -0.480914 1.13327e-24 0.000430171 3.52173e-22 -9.76706e-48)
(-0.000345615 -0.486412 9.10552e-24 0.000449824 3.56011e-23 -1.48219e-45)
(-0.00035999 -0.49217 -1.15462e-24 0.000468994 -3.5493e-23 -7.40413e-49)
(-0.000374198 -0.498154 -2.86746e-27 0.000486941 -2.11195e-22 1.12361e-48)
(-0.000387979 -0.504389 -1.19359e-26 0.000506013 -1.64296e-22 -6.33888e-51)
(-0.000400764 -0.510852 2.35649e-26 0.000521846 1.1864e-23 4.72665e-48)
(-0.00041336 -0.517557 2.28268e-23 0.000540522 -1.14934e-23 9.5711e-46)
(-0.000424241 -0.5245 2.19327e-23 0.000554095 2.75016e-23 -2.30575e-45)
(-0.000434836 -0.531628 2.10931e-23 0.000569896 -6.39772e-26 3.34128e-48)
(-0.000443543 -0.538969 1.17623e-24 0.000581657 -9.82061e-24 1.06511e-48)
(-0.000450338 -0.546451 -6.71657e-26 0.000592536 2.45019e-23 0)
(-0.000455664 -0.554091 2.37412e-23 0.000601202 -1.54709e-23 1.30523e-45)
(-0.000457799 -0.56182 2.3717e-23 0.000605711 -3.42386e-22 2.86817e-44)
(-0.000457199 -0.56959 -2.43981e-23 0.000607125 1.44137e-23 1.20794e-45)
(-0.00045266 -0.577368 -9.9941e-26 0.00060409 -1.35224e-23 0)
(-0.000443307 -0.585061 0 0.00059442 0 0)
(-0.000430346 -0.592614 -2.62812e-25 0.000581328 8.47062e-24 0)
(-0.000408679 -0.599946 5.02764e-23 0.000557088 -1.09498e-23 1.83139e-45)
(-0.000383723 -0.60684 5.72557e-25 0.000526824 -5.62453e-22 6.54028e-49)
(-0.000351418 -0.613388 3.55228e-24 0.000494252 -2.21317e-24 2.34339e-47)
(-0.000311645 -0.619266 -6.39678e-25 0.000440556 1.22432e-23 -9.18261e-49)
(-0.000265376 -0.624585 -6.77861e-25 0.000397682 -7.88163e-24 -9.97882e-52)
(-0.000216676 -0.629025 7.09269e-25 0.000324587 -2.1011e-22 9.97873e-52)
(-0.000151397 -0.632817 -1.34246e-23 0.000271856 -1.51307e-24 -6.28531e-47)
(-0.000129973 -0.635254 1.2715e-25 0.000201883 -1.20929e-24 -6.69009e-49)
(-8.75514e-05 -0.638276 5.55924e-28 0.00020824 -6.53231e-35 0)
(-5.32729e-05 -0.221001 -1.05907e-24 -2.75158e-05 1.73146e-27 2.00659e-47)
(-6.94885e-07 -0.2215 -2.23136e-21 -2.68211e-05 2.55881e-23 -2.32724e-44)
(9.53086e-05 -0.221871 -1.10385e-22 -0.000139425 -8.85965e-24 5.30948e-46)
(0.000231507 -0.221321 1.62827e-22 -0.000234156 1.58998e-23 -7.71287e-46)
(0.000322951 -0.22045 6.8285e-23 -0.000318188 1.14164e-21 8.94079e-45)
(0.000443386 -0.21891 -2.83362e-22 -0.000415133 -1.48924e-21 -3.61662e-43)
(0.000532122 -0.21695 -8.49813e-21 -0.000487348 8.52643e-22 -2.62618e-42)
(0.00061991 -0.21455 1.30355e-22 -0.000558884 -2.11196e-24 1.782e-46)
(0.000695184 -0.211757 8.26297e-21 -0.000617964 -1.16007e-21 -3.85215e-42)
(0.000756741 -0.208641 1.32945e-22 -0.000665939 -2.83442e-21 -4.81777e-43)
(0.000808383 -0.205242 8.09552e-21 -0.000704553 1.81025e-21 -7.63044e-41)
(0.000848092 -0.201617 -1.77016e-22 -0.000733279 -1.0464e-22 0)
(0.000878037 -0.197811 -7.80368e-21 -0.000753466 1.73124e-21 -7.34756e-42)
(0.000897166 -0.193871 -3.05958e-22 -0.000764283 -1.4513e-23 1.8857e-43)
(0.000905993 -0.189839 7.84573e-22 -0.000767053 4.09442e-21 -5.39636e-43)
(0.000906071 -0.185766 -3.45694e-23 -0.000761867 2.81584e-22 8.34785e-43)
(0.000898524 -0.181688 -7.59923e-22 -0.000751436 -1.83266e-23 -6.15075e-43)
(0.000883933 -0.17764 4.62539e-22 -0.000734598 1.8314e-23 2.10054e-43)
(0.000863328 -0.173658 3.07253e-21 -0.00071375 -8.29492e-22 -2.05976e-42)
(0.000838659 -0.16976 3.15345e-22 -0.000689248 -3.05877e-22 -1.96294e-42)
(0.000809556 -0.165971 -8.32448e-23 -0.000662006 -1.73429e-24 8.61501e-48)
(0.000778054 -0.162306 -3.1621e-21 -0.000632393 8.56617e-22 -6.54786e-42)
(0.000744758 -0.158778 3.51088e-21 -0.000602342 -8.51819e-22 -8.53313e-42)
(0.00070946 -0.155394 -3.88751e-21 -0.000570275 -4.52545e-21 -7.14134e-41)
(0.000673105 -0.152167 4.36224e-22 -0.000538097 -2.85475e-21 2.42121e-42)
(0.000636581 -0.149095 -1.16424e-23 -0.000505676 3.62885e-22 3.51879e-48)
(0.000599755 -0.146184 7.73531e-23 -0.000473567 -3.27169e-21 0)
(0.00056329 -0.143432 2.93487e-21 -0.00044186 -1.2447e-21 -2.9579e-42)
(0.000527293 -0.140839 7.85986e-23 -0.000410877 1.99175e-22 -2.63918e-45)
(0.00049228 -0.138401 -1.579e-22 -0.000380866 -1.93945e-22 1.648e-45)
(0.000458147 -0.136115 1.5817e-22 -0.000351832 -2.88351e-21 -6.68689e-44)
(0.0004251 -0.133976 2.57165e-23 -0.000323887 3.05839e-21 -4.0357e-43)
(0.000393188 -0.131981 1.25628e-21 -0.000297067 1.88393e-21 -1.31062e-41)
(0.000362452 -0.130123 1.25234e-21 -0.000271385 9.88555e-22 -8.71825e-42)
(0.000332736 -0.128396 7.39956e-23 -0.000246819 6.56486e-24 -2.65825e-43)
(0.00030435 -0.126797 1.22131e-21 -0.000223283 -5.05682e-22 -8.99991e-43)
(0.000276924 -0.125319 -1.35666e-21 -0.000200758 5.78431e-22 -9.33553e-43)
(0.000250732 -0.123959 3.92525e-23 -0.000179365 -1.44344e-21 2.73239e-43)
(0.000225286 -0.122712 7.11415e-23 -0.000158731 6.69185e-24 -1.58352e-44)
(0.000201167 -0.121571 -3.79515e-23 -0.000139094 -3.27811e-24 -3.80513e-45)
(0.000177603 -0.120532 1.25138e-24 -0.000120079 -4.05462e-23 3.86099e-45)
(0.000154972 -0.119595 5.48209e-24 -0.000102043 4.51169e-23 5.80745e-45)
(0.000133531 -0.118757 -2.61449e-25 -8.48198e-05 -3.95633e-23 0)
(0.000112239 -0.118016 -7.97347e-24 -6.80968e-05 6.08724e-22 1.47953e-46)
(9.18866e-05 -0.11737 -8.87869e-24 -5.1941e-05 6.04866e-22 1.38566e-44)
(7.15473e-05 -0.116814 3.3748e-22 -3.60164e-05 -1.23041e-22 -6.50914e-44)
(5.15401e-05 -0.116348 1.29628e-22 -2.03601e-05 -7.04894e-23 1.21057e-45)
(3.18263e-05 -0.11597 -1.52167e-22 -5.03848e-06 5.15946e-23 -1.08921e-44)
(1.21356e-05 -0.11568 3.54647e-24 1.03132e-05 1.09406e-23 0)
(-7.70623e-06 -0.115478 -7.68917e-25 2.56176e-05 -2.15394e-24 0)
(-2.70433e-05 -0.115363 -3.6185e-23 4.06359e-05 8.78444e-23 1.16608e-44)
(-4.63251e-05 -0.115335 5.54448e-24 5.54688e-05 3.30173e-25 2.89367e-46)
(-6.56187e-05 -0.115393 1.73885e-23 7.03197e-05 1.68038e-23 -7.00919e-46)
(-8.52266e-05 -0.11554 -1.16321e-24 8.53385e-05 -2.4482e-22 2.09811e-45)
(-0.000105041 -0.115775 -3.47567e-23 0.00010054 -1.73126e-23 -2.09712e-45)
(-0.000125093 -0.116101 1.83819e-23 0.000115861 -4.86563e-22 6.99923e-46)
(-0.000145449 -0.116518 -5.63803e-25 0.000131521 8.50381e-25 0)
(-0.000166244 -0.117029 -7.738e-24 0.00014738 2.09532e-23 1.00289e-46)
(-0.000187062 -0.117635 -9.36897e-24 0.000163469 4.44751e-23 1.00359e-46)
(-0.000208616 -0.118341 -1.02386e-22 0.000179839 -7.8568e-23 -1.58676e-44)
(-0.000230184 -0.119149 1.60504e-24 0.000196449 4.97982e-25 1.40809e-44)
(-0.000252748 -0.120062 2.01732e-23 0.000213649 -7.75007e-22 1.45563e-43)
(-0.000275758 -0.121081 1.47554e-21 0.000231445 -2.04675e-22 -1.11851e-42)
(-0.000299178 -0.122207 1.29614e-21 0.000249641 3.82213e-22 -3.87357e-42)
(-0.000323422 -0.12344 -1.36245e-21 0.00026845 3.42949e-22 1.09984e-43)
(-0.000347713 -0.124788 1.85847e-23 0.000287387 4.45499e-22 0)
(-0.000372731 -0.126251 1.66927e-22 0.000306839 1.20231e-21 -5.76678e-45)
(-0.00039786 -0.127833 -1.54816e-22 0.000326754 5.75684e-23 3.16308e-45)
(-0.000423563 -0.129534 -1.82725e-23 0.000346952 -6.6753e-23 5.74618e-47)
(-0.000449376 -0.131359 -1.42622e-21 0.000367398 1.08543e-21 4.5767e-42)
(-0.000475364 -0.133309 2.13145e-23 0.000388071 -8.18341e-22 4.81591e-47)
(-0.000501608 -0.135388 1.77826e-22 0.000409046 -7.42082e-22 -2.48829e-43)
(-0.000528027 -0.137597 2.8024e-21 0.000430159 -2.1347e-22 -9.42534e-43)
(-0.000554261 -0.139938 2.9783e-21 0.000451281 -3.35562e-22 2.90625e-43)
(-0.000581611 -0.142412 3.11914e-22 0.000473173 -5.6822e-23 3.06007e-45)
(-0.000607876 -0.145024 -3.4927e-22 0.000494848 5.56587e-23 -1.76446e-45)
(-0.000634286 -0.147765 -3.14143e-21 0.000515894 1.56716e-22 -3.32453e-43)
(-0.000659991 -0.150643 -3.17889e-21 0.00053753 -4.30943e-22 -6.20277e-42)
(-0.000685 -0.153654 3.66854e-22 0.00055718 -1.89388e-23 8.10143e-46)
(-0.000709903 -0.156803 -3.80132e-22 0.000577905 1.82328e-23 -1.66586e-45)
(-0.000732184 -0.160087 3.3424e-21 0.000595279 -2.36019e-23 -3.84869e-44)
(-0.000753521 -0.163493 -2.1477e-23 0.00061297 6.19037e-23 -3.93594e-48)
(-0.000772173 -0.167023 3.88192e-22 0.000627465 1.87028e-22 -1.86713e-44)
(-0.000788228 -0.170658 -7.83357e-22 0.000639953 2.73408e-23 3.25379e-44)
(-0.000801158 -0.174396 3.59649e-22 0.000649868 -2.48312e-23 -1.50197e-44)
(-0.000808832 -0.17821 7.36895e-21 0.000655244 2.76707e-22 5.75416e-43)
(-0.000811844 -0.182079 -1.72948e-22 0.000656783 1.67033e-24 -2.18264e-45)
(-0.000808503 -0.185984 2.09151e-22 0.000653011 -4.94742e-23 1.08578e-45)
(-0.000797248 -0.189889 9.35518e-25 0.000642266 2.56159e-23 0)
(-0.000779191 -0.193763 -1.10369e-22 0.000626095 1.50793e-23 1.37663e-45)
(-0.000747432 -0.197563 3.9837e-23 0.000598209 -9.54805e-22 -3.08763e-45)
(-0.000709173 -0.201221 8.2742e-21 0.000563499 4.43428e-22 1.69478e-42)
(-0.000659299 -0.204733 5.0512e-23 0.000522223 9.43794e-22 -4.76313e-44)
(-0.000598995 -0.208006 -1.75835e-22 0.000465102 -9.0302e-22 3.05535e-45)
(-0.000527343 -0.211039 1.08574e-22 0.000408221 1.17338e-23 -1.36704e-45)
(-0.000453005 -0.213748 4.29619e-21 0.000333943 1.54276e-22 4.36035e-43)
(-0.000356244 -0.216151 5.1244e-23 0.000261641 -3.01827e-22 3.46082e-44)
(-0.000316776 -0.218121 3.04398e-23 0.000203351 -4.25688e-26 3.0931e-46)
(-0.000231528 -0.219979 4.96151e-26 0.000173746 -1.36249e-27 0)
(-0.00010192 -0.187575 1.46364e-24 7.50653e-05 -3.08074e-28 -1.72985e-47)
(-2.14499e-05 -0.187695 2.13348e-21 4.89297e-05 3.11238e-23 2.22597e-44)
(0.000115092 -0.187552 -1.50956e-22 -0.000124122 4.51633e-22 8.53173e-48)
(0.000297765 -0.186741 1.99566e-22 -0.000282567 7.09499e-22 -8.49157e-48)
(0.000428366 -0.18556 2.06632e-20 -0.000422093 1.05479e-21 -9.19618e-41)
(0.000586367 -0.183884 -2.04917e-20 -0.000576753 1.25013e-21 -7.43142e-42)
(0.000710415 -0.181859 8.2111e-21 -0.000699548 4.21977e-21 2.81715e-42)
(0.000829951 -0.179496 -1.65681e-22 -0.000819919 -3.78134e-21 -2.07859e-43)
(0.000933208 -0.176847 -7.92873e-21 -0.000922488 2.90454e-21 4.27953e-42)
(0.00101909 -0.173968 -1.87569e-20 -0.00100903 -2.77543e-21 -2.30248e-40)
(0.00109148 -0.170897 1.16061e-20 -0.00108185 1.19543e-21 -1.24504e-40)
(0.001148 -0.167679 -5.13754e-22 -0.00113925 -7.67827e-24 2.00873e-42)
(0.00119146 -0.164355 7.23305e-21 -0.00118351 2.23396e-21 6.81234e-42)
(0.00122039 -0.160959 1.03291e-22 -0.00121319 3.71108e-22 0)
(0.00123535 -0.157528 1.62238e-20 -0.00122951 -3.90407e-21 5.98881e-42)
(0.00123847 -0.154094 7.7196e-22 -0.00123316 1.58021e-23 -1.12062e-41)
(0.00123068 -0.150688 -1.31792e-23 -0.00122691 3.17102e-22 0)
(0.00121344 -0.147335 -4.1827e-23 -0.00121014 -8.65696e-21 0)
(0.00118762 -0.144059 -2.27627e-21 -0.00118569 6.90163e-21 6.99288e-42)
(0.00115615 -0.140874 -8.3598e-22 -0.00115473 9.34329e-21 -3.30078e-42)
(0.00111841 -0.137795 6.21237e-23 -0.00111821 8.61279e-21 0)
(0.00107721 -0.134832 2.0573e-21 -0.00107735 2.7545e-21 5.86394e-42)
(0.00103296 -0.131995 -2.30905e-21 -0.00103425 -1.12764e-20 8.05392e-42)
(0.00098611 -0.129285 -1.13164e-20 -0.000987587 5.71117e-21 6.02603e-41)
(0.00093742 -0.126712 -6.65761e-21 -0.000939729 1.64521e-21 -1.58536e-41)
(0.000888399 -0.124272 7.42498e-22 -0.000890883 3.38114e-22 7.41464e-42)
(0.000838689 -0.121968 -7.4877e-21 -0.000841731 7.00195e-21 8.02051e-41)
(0.000789402 -0.119797 -2.44776e-21 -0.000792657 -1.38554e-21 2.64356e-42)
(0.000740662 -0.117759 4.26183e-22 -0.000744159 -3.84678e-22 -1.69491e-45)
(0.000692988 -0.115849 -5.15747e-22 -0.000696671 7.88794e-23 1.68905e-45)
(0.000646477 -0.114063 -6.06748e-21 -0.000650273 6.88349e-21 9.46107e-41)
(0.000601362 -0.112398 6.72846e-21 -0.000605192 -7.22282e-21 9.05892e-41)
(0.000557638 -0.11085 4.04857e-21 -0.000561537 -2.57042e-21 2.861e-41)
(0.000515546 -0.109414 2.04545e-21 -0.000519381 -1.64659e-21 6.34062e-42)
(0.000474861 -0.108085 -7.53754e-23 -0.000478688 -1.93134e-22 0)
(0.000435891 -0.106859 -9.79145e-22 -0.000439563 -3.07735e-21 7.35211e-43)
(0.000398119 -0.105731 1.12679e-21 -0.000401753 -1.50895e-21 1.13821e-42)
(0.000361999 -0.104699 -3.08174e-21 -0.000365525 -1.14727e-21 -2.64533e-41)
(0.000327004 -0.103758 7.31363e-23 -0.000330391 -1.85007e-22 0)
(0.000293758 -0.102904 -1.81976e-24 -0.000296898 -2.12206e-21 0)
(0.000261291 -0.102132 -7.60624e-23 -0.000264202 -1.40666e-22 1.24952e-44)
(0.000229847 -0.101442 1.59822e-22 -0.000232736 7.57457e-23 -2.52326e-44)
(0.000199849 -0.100833 -5.21377e-23 -0.000202509 -1.05856e-21 1.27389e-44)
(0.000170129 -0.100301 1.42313e-21 -0.000172749 -4.47095e-22 -4.95745e-43)
(0.000141572 -0.099847 1.34608e-21 -0.000143937 7.44476e-23 -3.21196e-42)
(0.000113157 -0.0994667 -3.1321e-22 -0.000115404 -1.49567e-22 4.51616e-44)
(8.5287e-05 -0.0991594 -1.28227e-22 -8.72369e-05 -1.20047e-22 1.5085e-45)
(5.76509e-05 -0.0989237 1.23483e-22 -5.94406e-05 9.11979e-23 1.55015e-44)
(3.00847e-05 -0.0987603 2.11694e-23 -3.16046e-05 1.16623e-24 -5.95391e-45)
(2.45521e-06 -0.0986675 -1.21784e-24 -3.79114e-06 3.29801e-24 1.73284e-46)
(-2.47191e-05 -0.0986458 2.06532e-22 2.36645e-05 -3.53104e-23 -2.49089e-44)
(-5.18454e-05 -0.098696 -3.44439e-24 5.10188e-05 -2.19094e-22 0)
(-7.89991e-05 -0.0988178 2.67701e-23 7.84439e-05 -6.42677e-24 3.61303e-44)
(-0.000106593 -0.0990117 -6.91615e-22 0.000106236 1.79643e-22 -9.28951e-44)
(-0.000134405 -0.0992789 -5.1731e-23 0.000134381 -1.07275e-23 -4.09742e-44)
(-0.000162678 -0.09962 -1.46731e-21 0.000162857 3.51975e-22 -5.3379e-43)
(-0.000191367 -0.100038 2.59644e-23 0.000191904 -4.57647e-23 1.62507e-43)
(-0.000220585 -0.100532 8.21754e-23 0.000221385 9.65544e-23 -8.91175e-45)
(-0.000250133 -0.101106 1.56801e-22 0.000251285 -7.31694e-22 1.08264e-47)
(-0.00028072 -0.101762 -1.63462e-22 0.000281995 1.33119e-21 -1.08393e-47)
(-0.000311323 -0.102504 -3.66857e-23 0.000313003 3.98405e-23 0)
(-0.000343209 -0.103331 -3.05549e-21 0.000345089 4.6037e-22 -3.10159e-42)
(-0.000375649 -0.104246 -9.49654e-22 0.000377935 -2.93127e-22 1.43466e-42)
(-0.000408487 -0.10525 1.78007e-21 0.000411217 -8.75929e-22 5.95055e-42)
(-0.000442503 -0.106345 1.53489e-21 0.000445602 -7.618e-22 -1.15373e-42)
(-0.000476722 -0.107535 2.34525e-21 0.000480238 -4.57541e-22 3.7734e-42)
(-0.000511847 -0.108821 6.35919e-21 0.000515649 -8.67888e-22 -7.06816e-42)
(-0.000547211 -0.110206 2.86311e-22 0.000551476 1.47189e-22 2.55606e-46)
(-0.000583239 -0.111692 -2.97168e-22 0.000587831 1.53105e-21 -2.56355e-46)
(-0.000619471 -0.113279 7.49525e-21 0.000624482 -4.18753e-22 -1.16111e-41)
(-0.000656103 -0.114972 -6.45126e-21 0.000661415 6.19451e-22 -2.5316e-42)
(-0.000692982 -0.116774 -6.42499e-21 0.000698667 5.43537e-22 -2.2914e-42)
(-0.000729997 -0.118683 -1.87211e-21 0.00073602 -3.50979e-22 2.66318e-42)
(-0.000766987 -0.120703 -3.42717e-21 0.000773356 -3.43173e-22 -1.86376e-42)
(-0.000805025 -0.122834 -7.54238e-22 0.000811532 -3.44373e-23 7.52665e-46)
(-0.000841604 -0.125078 7.90902e-22 0.000848781 3.60865e-23 -7.56325e-46)
(-0.000878509 -0.127432 2.80538e-21 0.000885402 2.01232e-22 2.99856e-43)
(-0.000914219 -0.1299 -1.14432e-20 0.000922133 6.49187e-22 1.03102e-41)
(-0.00094943 -0.132479 -8.14768e-22 0.000956592 -6.21193e-23 2.93027e-46)
(-0.00098368 -0.13517 8.40887e-22 0.000991808 1.19708e-23 -2.94812e-46)
(-0.00101512 -0.137971 -3.05937e-21 0.00102239 -1.8692e-22 3.69182e-44)
(-0.00104441 -0.140871 -1.64077e-20 0.00105242 -1.78513e-23 1.29103e-42)
(-0.00107043 -0.143869 -1.49715e-20 0.00107781 -4.26876e-22 -1.28828e-41)
(-0.00109257 -0.146951 -9.38968e-22 0.00109985 -2.67936e-23 -4.05712e-46)
(-0.00110998 -0.15011 9.4898e-22 0.00111705 -1.15006e-23 4.08741e-46)
(-0.0011203 -0.153325 -7.31193e-21 0.00112693 3.06567e-22 -1.53372e-43)
(-0.00112396 -0.156577 -2.42917e-23 0.00113016 -1.11292e-21 -4.63965e-43)
(-0.00111893 -0.159847 1.00842e-21 0.00112461 -3.12501e-23 8.8315e-44)
(-0.00110332 -0.163105 -5.08442e-22 0.00110804 2.17042e-24 -2.97063e-44)
(-0.00107732 -0.166322 -3.07943e-22 0.0010816 1.55198e-21 -6.10868e-43)
(-0.00103448 -0.169463 1.91524e-20 0.00103812 7.57651e-22 6.02066e-42)
(-0.000981897 -0.172481 -7.75249e-21 0.000983659 5.60099e-22 -1.32236e-42)
(-0.000913455 -0.175345 -1.95921e-20 0.000917324 -7.63958e-22 4.33017e-42)
(-0.000833371 -0.178008 1.9898e-20 0.000831456 7.24016e-22 4.44417e-42)
(-0.000735748 -0.180426 -2.41729e-22 0.000740553 1.46801e-21 1.16074e-43)
(-0.000637747 -0.182566 -3.72859e-21 0.000631791 -4.38471e-22 -5.21801e-43)
(-0.000511411 -0.184387 1.02277e-20 0.000521302 2.61801e-22 4.3928e-43)
(-0.000449345 -0.185842 1.2969e-23 0.000432649 -1.91005e-22 -1.48578e-54)
(-0.000320962 -0.186997 7.31516e-26 0.000349889 4.67743e-25 1.48766e-54)
(-0.000123611 -0.160831 3.15678e-25 9.95143e-05 -1.52495e-27 5.15614e-54)
(-1.2879e-05 -0.160664 1.99987e-23 3.88884e-05 -2.79975e-23 -5.14698e-54)
(0.000158679 -0.160156 2.32633e-20 -0.000168452 -3.69842e-22 -1.24202e-42)
(0.000379094 -0.159149 2.37536e-20 -0.000368059 -5.87049e-22 -4.77266e-42)
(0.000544656 -0.157756 2.65597e-20 -0.000542804 -1.02728e-21 2.35376e-42)
(0.000731979 -0.156004 1.99181e-20 -0.000728154 3.73186e-21 4.12431e-42)
(0.000885817 -0.153945 4.45583e-20 -0.000882323 -8.97384e-21 4.44636e-40)
(0.00103036 -0.151629 -4.41081e-20 -0.0010286 3.06217e-21 -4.03203e-41)
(0.00115539 -0.149102 4.32131e-20 -0.0011537 -2.3444e-21 -4.44726e-41)
(0.00126009 -0.146419 -2.50412e-20 -0.00125956 6.7881e-21 3.69203e-40)
(0.00134815 -0.143612 2.4567e-20 -0.00134829 -6.13901e-21 3.49251e-40)
(0.00141717 -0.14072 -1.37372e-22 -0.00141818 9.964e-23 0)
(0.00147003 -0.137772 1.22065e-23 -0.00147195 -1.60503e-21 0)
(0.00150552 -0.134802 9.30588e-22 -0.00150809 -1.22708e-20 9.7249e-42)
(0.00152414 -0.131834 -1.71378e-20 -0.00152778 -4.07438e-21 -4.68608e-42)
(0.00152847 -0.128894 1.97833e-22 -0.00153231 1.70233e-22 0)
(0.00151905 -0.126004 -4.38624e-22 -0.00152402 -8.68537e-22 0)
(0.00149854 -0.123181 -3.45634e-20 -0.00150348 7.06146e-21 -6.20455e-41)
(0.0014674 -0.120443 3.31104e-20 -0.00147312 -5.99319e-21 3.56123e-41)
(0.00142924 -0.117798 3.53039e-20 -0.00143495 1.05073e-21 -9.05995e-40)
(0.00138345 -0.115256 3.02335e-20 -0.0013898 -7.15756e-21 -1.01412e-41)
(0.00133344 -0.112823 2.73829e-21 -0.00133956 -8.3781e-22 -7.08469e-42)
(0.00127926 -0.110506 -3.0973e-20 -0.0012859 1.63799e-20 5.65e-40)
(0.00122225 -0.108305 1.17286e-20 -0.00122851 3.70341e-21 -2.54589e-41)
(0.00116268 -0.106222 5.2412e-21 -0.0011693 3.29882e-21 2.07569e-41)
(0.0011026 -0.104256 1.14216e-21 -0.00110898 -8.3014e-22 -6.18389e-42)
(0.00104178 -0.102407 2.04052e-20 -0.00104819 -5.8467e-22 -2.13732e-40)
(0.00098133 -0.100672 3.96159e-22 -0.000987544 2.12452e-21 -5.42628e-45)
(0.000921404 -0.0990492 -8.25874e-22 -0.000927575 -1.8826e-22 5.40042e-45)
(0.000862901 -0.0975333 4.25505e-22 -0.000868791 -8.36283e-21 0)
(0.000805599 -0.096122 1.86673e-20 -0.000811345 -5.25678e-21 -3.16911e-41)
(0.00074997 -0.0948115 -2.00968e-20 -0.000755492 -3.39306e-21 -4.33515e-40)
(0.000696061 -0.093598 -4.39527e-21 -0.000701384 -1.53373e-21 1.82029e-41)
(0.000643999 -0.0924767 -2.24324e-21 -0.000649082 -8.85628e-22 -6.8666e-44)
(0.000593701 -0.0914445 -4.44497e-22 -0.000598588 -1.23236e-23 -1.51518e-42)
(0.000545481 -0.090497 -6.42064e-21 -0.000550064 -1.63031e-21 -9.19204e-41)
(0.000498758 -0.0896306 -6.16337e-21 -0.000503114 1.13571e-21 -7.08883e-42)
(0.00045386 -0.088842 -3.08831e-21 -0.00045803 3.1338e-21 4.52235e-41)
(0.000410491 -0.0881287 -4.22578e-22 -0.000414398 -1.20365e-23 -1.45031e-42)
(0.000369094 -0.0874868 -5.91014e-21 -0.000372715 3.44958e-21 3.38866e-41)
(0.000328678 -0.0869141 -2.25663e-22 -0.00033203 1.40089e-22 -1.499e-42)
(0.000289494 -0.0864086 1.22244e-22 -0.000292695 1.7542e-21 4.38677e-44)
(0.000251906 -0.0859686 -3.02303e-21 -0.000254743 8.38131e-22 -1.61413e-42)
(0.000214731 -0.0855934 -1.19851e-21 -0.000217359 -5.9764e-22 4.48819e-43)
(0.000178803 -0.0852813 2.60064e-22 -0.00018114 -1.02699e-21 5.50948e-42)
(0.000143154 -0.0850301 8.31429e-23 -0.00014532 -6.5768e-22 4.79818e-45)
(0.000108121 -0.0848398 -1.29305e-22 -0.000109962 -3.79397e-22 -9.71725e-45)
(7.33564e-05 -0.0847091 4.53515e-23 -7.49787e-05 3.77211e-22 4.91973e-45)
(3.87676e-05 -0.0846381 -6.5936e-25 -4.00441e-05 -9.77604e-24 0)
(4.09799e-06 -0.0846259 7.28299e-24 -5.15856e-06 -9.90222e-24 2.22099e-45)
(-3.01734e-05 -0.084672 -1.78666e-22 2.93819e-05 9.84586e-23 1.15274e-44)
(-6.4456e-05 -0.0847779 -7.32505e-22 6.38973e-05 1.77565e-22 -5.06448e-44)
(-9.87395e-05 -0.0849442 2.41293e-23 9.85074e-05 3.45505e-22 0)
(-0.000133543 -0.0851702 6.23221e-22 0.000133563 2.36326e-22 8.84262e-44)
(-0.000168685 -0.0854577 -7.4423e-23 0.000169054 1.13766e-23 1.23242e-43)
(-0.000204428 -0.0858078 1.34235e-21 0.000205018 -1.86882e-22 2.20959e-43)
(-0.000240654 -0.0862211 -1.92142e-22 0.000241644 -1.23911e-21 2.82612e-44)
(-0.000277627 -0.0866999 3.08865e-22 0.000278876 -1.28663e-21 3.86582e-43)
(-0.000315098 -0.0872458 -3.12715e-21 0.000316692 4.8696e-22 -1.92554e-42)
(-0.000353795 -0.0878603 5.94872e-21 0.000355598 -9.2032e-22 -3.76133e-42)
(-0.000392674 -0.0885458 1.34201e-22 0.000394901 1.03e-21 -8.57021e-43)
(-0.000432831 -0.0893042 2.25514e-21 0.000435423 7.38953e-22 3.07306e-42)
(-0.000473781 -0.0901366 6.6033e-22 0.000476743 2.83957e-22 -3.48815e-43)
(-0.000515322 -0.0910445 -2.72563e-21 0.00051858 -2.37072e-21 -6.59682e-43)
(-0.000558107 -0.0920294 -6.71677e-21 0.000561704 5.85702e-22 -4.24063e-42)
(-0.000601288 -0.0930946 -2.70213e-21 0.000605291 -4.39509e-22 -5.90734e-43)
(-0.000645333 -0.094242 -5.45649e-21 0.000649728 -1.04417e-21 4.54591e-42)
(-0.000689836 -0.0954723 9.04366e-22 0.000694584 -1.65657e-21 -4.1921e-42)
(-0.000735076 -0.0967881 1.25286e-20 0.000740138 -1.24278e-21 -8.13139e-43)
(-0.000780494 -0.0981912 -5.76348e-21 0.000786051 -1.06634e-21 6.86052e-42)
(-0.000826475 -0.0996842 5.87826e-21 0.000832297 -1.59527e-21 2.31034e-42)
(-0.000872621 -0.101268 5.85732e-21 0.000878859 5.88423e-22 2.09329e-42)
(-0.000918891 -0.102945 -3.44535e-23 0.000925509 4.74273e-22 0)
(-0.00096512 -0.104716 4.17692e-26 0.000972126 2.23759e-22 0)
(-0.00101211 -0.106581 1.99541e-26 0.00101938 5.34928e-23 0)
(-0.00105744 -0.108541 -2.10993e-26 0.00106538 -5.39735e-23 0)
(-0.00110318 -0.110595 2.68229e-23 0.00111085 -1.15029e-21 0)
(-0.00114707 -0.112745 1.50014e-20 0.0011558 3.82196e-22 -6.75451e-42)
(-0.00119062 -0.11499 -1.86254e-21 0.00119875 5.35454e-22 2.44185e-42)
(-0.00123193 -0.117328 -5.75328e-24 0.00124135 1.1446e-23 0)
(-0.00127058 -0.119756 -3.32834e-20 0.00127932 2.18652e-22 -1.80314e-42)
(-0.00130555 -0.122267 1.43814e-20 0.00131526 -1.55199e-22 -6.04859e-43)
(-0.00133666 -0.124857 4.75359e-20 0.00134607 -5.31676e-24 2.44539e-41)
(-0.00136247 -0.127514 1.03556e-21 0.00137218 -2.45823e-23 2.425e-42)
(-0.00138203 -0.130229 1.0506e-21 0.00139186 1.99301e-23 7.41689e-44)
(-0.00139295 -0.132985 1.03924e-21 0.00140262 -2.9234e-22 2.92496e-42)
(-0.00139508 -0.135766 3.60536e-20 0.00140469 8.8556e-22 2.9862e-43)
(-0.00138618 -0.138551 1.18772e-21 0.00139576 2.37263e-21 2.98854e-42)
(-0.00136453 -0.141317 7.67266e-23 0.00137349 -2.34382e-23 0)
(-0.0013291 -0.144036 -4.06906e-20 0.001338 -1.23366e-21 1.36811e-41)
(-0.00127482 -0.146678 -1.82034e-20 0.00128329 9.75972e-22 -3.54012e-42)
(-0.0012076 -0.149211 -7.59277e-23 0.00121427 2.45122e-21 0)
(-0.00112058 -0.151593 1.89587e-20 0.00112939 -9.54274e-22 -4.3047e-42)
(-0.0010216 -0.153799 -1.91814e-20 0.00102487 9.13206e-22 -4.25412e-42)
(-0.000898881 -0.155762 -4.53581e-20 0.000908411 -2.46894e-21 -9.57827e-41)
(-0.00077898 -0.157482 2.32609e-20 0.000778033 3.55618e-22 3.81623e-42)
(-0.000625369 -0.158874 -1.03297e-20 0.000638751 -6.36849e-22 -6.92238e-43)
(-0.000538191 -0.159935 1.1807e-20 0.000526091 1.53047e-22 4.96825e-43)
(-0.000369075 -0.160586 -3.75235e-23 0.000398923 -3.68672e-25 -2.61059e-47)
(-0.000122715 -0.139343 -8.54078e-26 9.67366e-05 -1.37755e-27 0)
(1.96495e-05 -0.138945 -2.08337e-22 2.18854e-06 -1.48259e-22 -1.32369e-43)
(0.000221148 -0.138171 -2.23971e-20 -0.000233377 -4.49824e-22 2.05402e-42)
(0.000472512 -0.137009 -2.23364e-20 -0.000464041 -7.24625e-22 3.83363e-42)
(0.000666127 -0.135474 5.95512e-21 -0.00066677 -2.49115e-21 2.15091e-40)
(0.000876135 -0.133686 4.85106e-20 -0.000873925 -7.10362e-21 3.19642e-40)
(0.00105609 -0.131639 -1.39095e-19 -0.0010533 1.34094e-21 -9.93073e-40)