/*--------------------------------*- C++ -*----------------------------------*\
| =========                 |                                                 |
| \\      /  F ield         | OpenFOAM: The Open Source CFD Toolbox           |
|  \\    /   O peration     | Version:  2306                                  |
|   \\  /    A nd           | Website:  www.openfoam.com                      |
|    \\/     M anipulation  |                                                 |
\*---------------------------------------------------------------------------*/
// * * * * * * * * * * * * * * * * * * * * * * * * * * * * * * * * * * * * * //
FoamFile
{
    version         2;
    format          ascii;
    class           volVectorField;
    location        "0";
    object          Udns;
}

dimensions      [ 0 1 -1 0 0 0 0 ];

internalField   nonuniform List<vector> 
14751
(
(0.00152329 -3.02967e-07 4.74342e-06)
(0.00153273 -1.96296e-07 4.78102e-06)
(0.00153898 -7.86678e-08 4.81909e-06)
(0.00154193 -3.14887e-08 4.84661e-06)
(0.00154152 5.83252e-09 4.86739e-06)
(0.0015378 9.00412e-08 4.89148e-06)
(0.00153085 2.24429e-07 4.92585e-06)
(0.00152077 3.53722e-07 4.97643e-06)
(0.00150778 3.63711e-07 5.02006e-06)
(0.0014921 3.61705e-07 5.0472e-06)
(0.00147401 4.2918e-07 5.05253e-06)
(0.00145393 5.47452e-07 5.04045e-06)
(0.00143217 6.44416e-07 5.02653e-06)
(0.00140908 5.97771e-07 5.00964e-06)
(0.00138503 5.37992e-07 4.99304e-06)
(0.00136035 5.75106e-07 4.9635e-06)
(0.00133527 6.63289e-07 4.92844e-06)
(0.00131005 7.16038e-07 4.90008e-06)
(0.00128495 6.29736e-07 4.86731e-06)
(0.00126016 5.39948e-07 4.8319e-06)
(0.00123584 5.59318e-07 4.80225e-06)
(0.0012121 6.22733e-07 4.77602e-06)
(0.001189 6.47298e-07 4.75291e-06)
(0.00116661 5.51753e-07 4.75364e-06)
(0.00114507 4.58763e-07 4.72904e-06)
(0.00112443 4.72151e-07 4.68313e-06)
(0.00110473 5.15868e-07 4.62974e-06)
(0.00108589 5.22245e-07 4.52524e-06)
(0.00106791 4.38091e-07 4.39677e-06)
(0.00105081 3.60543e-07 4.29606e-06)
(0.00103463 3.72428e-07 4.2446e-06)
(0.0010193 4.02092e-07 4.26506e-06)
(0.00100457 4.05385e-07 4.38385e-06)
(0.000990208 3.51557e-07 4.52684e-06)
(0.000976336 3.04393e-07 4.65427e-06)
(0.000962908 3.18881e-07 4.74958e-06)
(0.000949999 3.33905e-07 4.80382e-06)
(0.000937466 3.29316e-07 4.81673e-06)
(0.00092524 3.02716e-07 4.8822e-06)
(0.000913207 2.85603e-07 4.93731e-06)
(0.000901306 2.8986e-07 4.96859e-06)
(0.000889881 2.84699e-07 4.96931e-06)
(0.00087893 2.68844e-07 5.0018e-06)
(0.000868393 2.60595e-07 4.99271e-06)
(0.000858214 2.62557e-07 4.8738e-06)
(0.000848261 2.49158e-07 4.77724e-06)
(0.000838634 2.25596e-07 4.71446e-06)
(0.000829611 2.05569e-07 4.72672e-06)
(0.000821 2.17161e-07 4.71527e-06)
(0.000812737 2.35134e-07 4.66766e-06)
(0.000804964 1.93041e-07 4.50391e-06)
(0.000797964 1.42446e-07 4.41939e-06)
(0.000791526 1.2767e-07 4.29582e-06)
(0.000785824 1.46028e-07 4.12345e-06)
(0.000780973 1.62042e-07 3.94663e-06)
(0.000777042 9.35673e-08 3.82184e-06)
(0.00077422 1.95272e-08 3.84328e-06)
(0.000772486 -8.91069e-11 3.9125e-06)
(0.000771842 1.85533e-08 3.9292e-06)
(0.000772633 2.81156e-08 3.93065e-06)
(0.000774708 -5.74535e-08 3.97798e-06)
(0.000778055 -1.5004e-07 3.99778e-06)
(0.00078273 -1.68113e-07 4.05264e-06)
(0.000788864 -1.48057e-07 4.12386e-06)
(0.000796497 -1.30183e-07 4.18073e-06)
(0.000805332 -2.31661e-07 4.24909e-06)
(0.000815781 -3.38892e-07 4.32812e-06)
(0.000827692 -3.51103e-07 4.38677e-06)
(0.000841055 -3.1863e-07 4.40355e-06)
(0.000855821 -3.09845e-07 4.34951e-06)
(0.000871862 -4.10213e-07 4.27844e-06)
(0.000889074 -5.06749e-07 4.20161e-06)
(0.000907231 -4.96191e-07 4.16543e-06)
(0.000926276 -4.50775e-07 4.1631e-06)
(0.000946202 -4.35974e-07 4.17648e-06)
(0.00096687 -5.22861e-07 4.15961e-06)
(0.000988239 -6.0664e-07 4.12705e-06)
(0.00101031 -5.85996e-07 4.10832e-06)
(0.00103298 -5.36809e-07 4.10791e-06)
(0.00105626 -5.28988e-07 4.10997e-06)
(0.00108008 -6.01065e-07 4.11142e-06)
(0.00110433 -6.69776e-07 4.10036e-06)
(0.00112908 -6.44258e-07 4.07149e-06)
(0.00115422 -6.01443e-07 4.04054e-06)
(0.00117972 -5.98683e-07 4.02026e-06)
(0.0012056 -6.54907e-07 4.00875e-06)
(0.00123179 -7.01116e-07 4.02297e-06)
(0.00125817 -6.74211e-07 4.06206e-06)
(0.00128464 -6.42174e-07 4.12804e-06)
(0.00131105 -6.36709e-07 4.21466e-06)
(0.00133724 -6.55974e-07 4.30683e-06)
(0.00136308 -6.62599e-07 4.38515e-06)
(0.00138837 -6.31115e-07 4.45156e-06)
(0.00141284 -5.98837e-07 4.50535e-06)
(0.00143612 -5.68114e-07 4.54926e-06)
(0.00145785 -5.2608e-07 4.59285e-06)
(0.00147774 -4.65857e-07 4.64154e-06)
(0.00149548 -4.18592e-07 4.68572e-06)
(0.0015108 -3.73213e-07 4.71758e-06)
(0.00463842 -9.22331e-07 1.44437e-05)
(0.00466715 -5.97483e-07 1.45582e-05)
(0.0046862 -2.39766e-07 1.46741e-05)
(0.00470288 -9.65487e-08 1.47822e-05)
(0.00470933 1.69609e-08 1.48699e-05)
(0.00470566 2.76638e-07 1.49679e-05)
(0.00469203 6.89466e-07 1.50978e-05)
(0.00466875 1.08441e-06 1.52777e-05)
(0.0046364 1.1168e-06 1.54367e-05)
(0.00459564 1.11234e-06 1.55454e-05)
(0.00454728 1.32644e-06 1.5587e-05)
(0.00449261 1.69516e-06 1.5575e-05)
(0.00443254 1.99201e-06 1.55571e-05)
(0.00436812 1.85057e-06 1.55299e-05)
(0.00430048 1.66737e-06 1.55034e-05)
(0.00423065 1.79123e-06 1.54364e-05)
(0.0041589 2.0735e-06 1.53518e-05)
(0.00408625 2.24488e-06 1.52876e-05)
(0.0040138 1.98871e-06 1.52093e-05)
(0.00393644 1.70879e-06 1.50984e-05)
(0.00386613 1.77983e-06 1.50292e-05)
(0.00379755 1.99225e-06 1.49705e-05)
(0.00373068 2.06612e-06 1.49211e-05)
(0.00366588 1.78492e-06 1.49462e-05)
(0.00359837 1.49296e-06 1.48697e-05)
(0.00353884 1.53469e-06 1.47484e-05)
(0.00347707 1.67742e-06 1.45807e-05)
(0.00342291 1.69986e-06 1.42743e-05)
(0.0033665 1.42595e-06 1.38704e-05)
(0.00331766 1.19745e-06 1.35736e-05)
(0.00326671 1.22301e-06 1.34111e-05)
(0.00322344 1.32806e-06 1.34972e-05)
(0.003177 1.32583e-06 1.38728e-05)
(0.00313647 1.17078e-06 1.4349e-05)
(0.00309277 1.02111e-06 1.47524e-05)
(0.0030504 1.05755e-06 1.50556e-05)
(0.00300973 1.10231e-06 1.52258e-05)
(0.00297479 1.09172e-06 1.52903e-05)
(0.00293623 1.00827e-06 1.54954e-05)
(0.00289828 9.54414e-07 1.56709e-05)
(0.00286064 9.66466e-07 1.57729e-05)
(0.00282901 9.53193e-07 1.58001e-05)
(0.00279438 9.01304e-07 1.5901e-05)
(0.00276113 8.72943e-07 1.58699e-05)
(0.00272907 8.78721e-07 1.54955e-05)
(0.00269755 8.3567e-07 1.51899e-05)
(0.00266724 7.57103e-07 1.49926e-05)
(0.00263866 6.9032e-07 1.50292e-05)
(0.00261154 7.29763e-07 1.49924e-05)
(0.00258543 7.76771e-07 1.48412e-05)
(0.00256093 6.41437e-07 1.43245e-05)
(0.00253886 4.79342e-07 1.40528e-05)
(0.00251855 4.37846e-07 1.36575e-05)
(0.00250057 4.80232e-07 1.31066e-05)
(0.00248531 5.24643e-07 1.25453e-05)
(0.00247296 3.05174e-07 1.21512e-05)
(0.00246411 6.74075e-08 1.222e-05)
(0.00245872 -1.72182e-09 1.24429e-05)
(0.00245274 6.17419e-08 1.24769e-05)
(0.00245535 8.30903e-08 1.2482e-05)
(0.00246196 -2.02306e-07 1.26315e-05)
(0.00247265 -4.84847e-07 1.26948e-05)
(0.00248342 -5.47374e-07 1.28475e-05)
(0.0025029 -5.07511e-07 1.30745e-05)
(0.00252713 -4.43597e-07 1.32523e-05)
(0.00255503 -7.79873e-07 1.34652e-05)
(0.00258389 -1.10355e-06 1.36936e-05)
(0.0026215 -1.15009e-06 1.38787e-05)
(0.00265932 -1.05028e-06 1.39101e-05)
(0.00270595 -1.03921e-06 1.37404e-05)
(0.00275661 -1.3451e-06 1.3516e-05)
(0.00280619 -1.65248e-06 1.32531e-05)
(0.00285876 -1.60687e-06 1.31179e-05)
(0.0029187 -1.47861e-06 1.31112e-05)
(0.00297648 -1.42181e-06 1.3133e-05)
(0.00304142 -1.68617e-06 1.30799e-05)
(0.00310341 -1.94614e-06 1.29577e-05)
(0.00316759 -1.87755e-06 1.28784e-05)
(0.00323852 -1.71905e-06 1.28769e-05)
(0.00330613 -1.68577e-06 1.28631e-05)
(0.00337522 -1.89627e-06 1.28472e-05)
(0.00344543 -2.09956e-06 1.27925e-05)
(0.00351701 -2.01352e-06 1.26825e-05)
(0.00358957 -1.87214e-06 1.25661e-05)
(0.00366297 -1.85703e-06 1.24829e-05)
(0.00373733 -2.02877e-06 1.24271e-05)
(0.00381233 -2.16863e-06 1.24511e-05)
(0.00388772 -2.08376e-06 1.25517e-05)
(0.00396306 -1.98214e-06 1.27349e-05)
(0.00403799 -1.96029e-06 1.2981e-05)
(0.00411196 -2.01651e-06 1.32434e-05)
(0.00418462 -2.03375e-06 1.34623e-05)
(0.00425534 -1.93465e-06 1.3644e-05)
(0.00432328 -1.83261e-06 1.37863e-05)
(0.00438732 -1.73561e-06 1.3898e-05)
(0.00444642 -1.60467e-06 1.40081e-05)
(0.00450708 -1.42105e-06 1.41567e-05)
(0.00455374 -1.27448e-06 1.4268e-05)
(0.00460037 -1.13643e-06 1.4365e-05)
(0.00761582 -2.71603e-06 2.44064e-05)
(0.00765703 -1.83168e-06 2.45897e-05)
(0.00768344 -1.00328e-06 2.47981e-05)
(0.00770849 -2.31023e-07 2.50075e-05)
(0.00771715 8.55685e-07 2.51809e-05)
(0.00771112 1.61777e-06 2.53457e-05)
(0.00769768 2.57782e-06 2.55712e-05)
(0.00766206 3.31244e-06 2.58807e-05)
(0.00761926 4.22372e-06 2.62182e-05)
(0.00756491 4.93761e-06 2.64994e-05)
(0.00749955 5.41238e-06 2.66687e-05)
(0.00742577 6.05443e-06 2.67333e-05)
(0.00734234 6.42488e-06 2.67543e-05)
(0.00725444 6.64728e-06 2.674e-05)
(0.00715993 7.0212e-06 2.67369e-05)
(0.00705797 7.38293e-06 2.6691e-05)
(0.00695649 7.13992e-06 2.66571e-05)
(0.00685771 7.32895e-06 2.66237e-05)
(0.00675156 7.41028e-06 2.64912e-05)
(0.00664764 7.32357e-06 2.6323e-05)
(0.0065513 7.05334e-06 2.62454e-05)
(0.00645256 6.98069e-06 2.61632e-05)
(0.00635052 6.65105e-06 2.60658e-05)
(0.00625611 6.63313e-06 2.61127e-05)
(0.00616678 6.40795e-06 2.61091e-05)
(0.00607619 6.01204e-06 2.592e-05)
(0.00599057 5.81192e-06 2.56832e-05)
(0.00591307 5.54355e-06 2.52365e-05)
(0.00583537 5.25026e-06 2.45936e-05)
(0.00575579 5.10932e-06 2.40433e-05)
(0.00568621 4.75577e-06 2.38039e-05)
(0.00562105 4.56996e-06 2.39833e-05)
(0.00555375 4.35286e-06 2.46421e-05)
(0.00549227 4.35314e-06 2.55348e-05)
(0.00542931 4.20395e-06 2.62701e-05)
(0.00536823 4.02292e-06 2.68704e-05)
(0.00530909 3.83696e-06 2.71346e-05)
(0.00525297 3.75268e-06 2.72209e-05)
(0.00519725 3.71599e-06 2.75101e-05)
(0.00513811 3.68284e-06 2.78652e-05)
(0.00508446 3.58284e-06 2.8143e-05)
(0.00503286 3.43401e-06 2.81868e-05)
(0.00497963 3.28985e-06 2.82855e-05)
(0.0049325 3.17446e-06 2.81814e-05)
(0.00488334 3.09313e-06 2.76136e-05)
(0.00483506 3.00802e-06 2.71472e-05)
(0.00479326 2.88823e-06 2.68894e-05)
(0.00474936 2.70325e-06 2.68759e-05)
(0.00470772 2.60905e-06 2.67932e-05)
(0.00466786 2.44292e-06 2.6533e-05)
(0.00463113 2.2215e-06 2.57419e-05)
(0.00459797 2.03529e-06 2.51242e-05)
(0.00456847 1.91769e-06 2.43618e-05)
(0.00454217 1.53898e-06 2.32911e-05)
(0.00451652 1.26653e-06 2.22858e-05)
(0.00449964 9.3384e-07 2.16792e-05)
(0.00448445 6.52123e-07 2.18274e-05)
(0.00447899 3.15302e-07 2.22879e-05)
(0.00447538 -7.15244e-08 2.24067e-05)
(0.0044829 -5.78591e-07 2.24313e-05)
(0.00449283 -9.84575e-07 2.26544e-05)
(0.00451 -1.22659e-06 2.27616e-05)
(0.00453346 -1.62748e-06 2.30102e-05)
(0.00456535 -2.36753e-06 2.34432e-05)
(0.00460382 -2.66479e-06 2.36412e-05)
(0.00464853 -3.14107e-06 2.3843e-05)
(0.00469783 -3.42883e-06 2.42002e-05)
(0.00475721 -3.85563e-06 2.44861e-05)
(0.00482105 -4.40132e-06 2.45247e-05)
(0.00489588 -4.92475e-06 2.42548e-05)
(0.00497335 -5.1333e-06 2.38314e-05)
(0.00505507 -5.49314e-06 2.33559e-05)
(0.00514126 -5.61597e-06 2.3093e-05)
(0.00522908 -6.14143e-06 2.30638e-05)
(0.00532221 -6.31483e-06 2.3115e-05)
(0.00541631 -6.3267e-06 2.29555e-05)
(0.0055162 -6.5741e-06 2.27655e-05)
(0.00561535 -6.79408e-06 2.25923e-05)
(0.00571529 -6.86075e-06 2.25145e-05)
(0.00581818 -7.12042e-06 2.24611e-05)
(0.00592437 -7.044e-06 2.23724e-05)
(0.00602437 -7.14652e-06 2.22212e-05)
(0.00612981 -7.18772e-06 2.20039e-05)
(0.00623293 -7.31572e-06 2.17882e-05)
(0.00633561 -7.46205e-06 2.16176e-05)
(0.00644082 -7.37022e-06 2.1494e-05)
(0.00654919 -7.46129e-06 2.14851e-05)
(0.00665316 -7.47445e-06 2.16093e-05)
(0.00675566 -7.44468e-06 2.18811e-05)
(0.00685468 -7.2596e-06 2.22483e-05)
(0.00695077 -7.158e-06 2.26486e-05)
(0.00704582 -6.93253e-06 2.29981e-05)
(0.00713604 -6.69745e-06 2.32784e-05)
(0.00722027 -6.35219e-06 2.34821e-05)
(0.00730328 -5.92104e-06 2.36363e-05)
(0.00737893 -5.42111e-06 2.37752e-05)
(0.0074433 -4.84452e-06 2.39345e-05)
(0.00751049 -4.26869e-06 2.41281e-05)
(0.00756706 -3.44998e-06 2.42719e-05)
(0.0104975 -4.58534e-06 3.4505e-05)
(0.0105365 -3.10388e-06 3.4706e-05)
(0.0105669 -1.37287e-06 3.49872e-05)
(0.0105888 3.31956e-07 3.52578e-05)
(0.0105975 2.08502e-06 3.55044e-05)
(0.0105926 3.7398e-06 3.57455e-05)
(0.0105671 5.49826e-06 3.60189e-05)
(0.0105368 7.01507e-06 3.6494e-05)
(0.0104817 8.45653e-06 3.70148e-05)
(0.0104141 9.96307e-06 3.7491e-05)
(0.0103359 1.12239e-05 3.78539e-05)
(0.0102415 1.22482e-05 3.80356e-05)
(0.0101391 1.30305e-05 3.81327e-05)
(0.010032 1.36287e-05 3.81837e-05)
(0.00991631 1.42109e-05 3.82241e-05)
(0.00979729 1.45076e-05 3.82739e-05)
(0.00966984 1.47159e-05 3.8295e-05)
(0.00954602 1.48488e-05 3.83014e-05)
(0.00941995 1.49245e-05 3.81633e-05)
(0.00929379 1.46629e-05 3.79764e-05)
(0.00917065 1.44586e-05 3.78855e-05)
(0.00905284 1.40483e-05 3.77885e-05)
(0.00893282 1.37312e-05 3.76688e-05)
(0.0088189 1.34231e-05 3.76822e-05)
(0.00870347 1.28167e-05 3.77417e-05)
(0.00860005 1.22619e-05 3.7619e-05)
(0.0084963 1.18066e-05 3.73994e-05)
(0.00839361 1.1352e-05 3.69131e-05)
(0.00829733 1.09069e-05 3.61427e-05)
(0.00820556 1.02679e-05 3.54271e-05)
(0.00812066 9.72755e-06 3.51805e-05)
(0.00803898 9.40899e-06 3.55877e-05)
(0.00795894 9.10452e-06 3.64879e-05)
(0.00788143 8.84222e-06 3.77387e-05)
(0.00780225 8.47692e-06 3.8838e-05)
(0.00773109 8.22646e-06 3.97022e-05)
(0.00765782 7.9623e-06 3.98876e-05)
(0.00758739 7.7655e-06 3.98631e-05)
(0.00751951 7.62657e-06 4.00937e-05)
(0.00745292 7.47517e-06 4.06509e-05)
(0.00738482 7.29275e-06 4.11465e-05)
(0.00731852 6.99832e-06 4.13615e-05)
(0.00725629 6.69788e-06 4.1436e-05)
(0.00719674 6.43856e-06 4.12528e-05)
(0.00713974 6.25563e-06 4.06864e-05)
(0.00708533 6.05692e-06 4.01355e-05)
(0.00702961 5.77052e-06 3.97776e-05)
(0.00698079 5.42737e-06 3.96313e-05)
(0.00693006 5.23467e-06 3.94366e-05)
(0.00688312 4.91592e-06 3.90783e-05)
(0.00684045 4.42832e-06 3.80886e-05)
(0.00680316 3.90813e-06 3.7019e-05)
(0.00676703 3.49223e-06 3.58591e-05)
(0.00673955 3.0105e-06 3.44293e-05)
(0.00671391 2.44489e-06 3.30706e-05)
(0.0066988 1.79881e-06 3.23761e-05)
(0.00668791 9.86911e-07 3.26014e-05)
(0.00668472 2.86844e-07 3.32067e-05)
(0.00668547 -6.02133e-07 3.34575e-05)
(0.00669918 -1.43383e-06 3.34418e-05)
(0.00671754 -2.22409e-06 3.36409e-05)
(0.00674603 -3.27258e-06 3.37336e-05)
(0.00678301 -4.16751e-06 3.40709e-05)
(0.00683061 -5.13113e-06 3.46835e-05)
(0.00688763 -5.85827e-06 3.48594e-05)
(0.00694963 -6.86277e-06 3.49287e-05)
(0.00702009 -7.78631e-06 3.53061e-05)
(0.00710061 -8.80573e-06 3.55592e-05)
(0.00719182 -9.66987e-06 3.55569e-05)
(0.00728739 -1.03881e-05 3.52234e-05)
(0.00739013 -1.10942e-05 3.4685e-05)
(0.00750179 -1.18679e-05 3.40011e-05)
(0.00761356 -1.22589e-05 3.35905e-05)
(0.00772886 -1.27925e-05 3.3556e-05)
(0.0078502 -1.31674e-05 3.36097e-05)
(0.00796881 -1.34178e-05 3.34059e-05)
(0.008098 -1.38741e-05 3.31353e-05)
(0.00822421 -1.40859e-05 3.28655e-05)
(0.00834813 -1.4276e-05 3.26812e-05)
(0.00847221 -1.45238e-05 3.25482e-05)
(0.00859808 -1.45848e-05 3.23588e-05)
(0.00872694 -1.47952e-05 3.21334e-05)
(0.00884861 -1.49217e-05 3.17805e-05)
(0.00897892 -1.48546e-05 3.15197e-05)
(0.00910147 -1.49484e-05 3.12896e-05)
(0.00921739 -1.48519e-05 3.10905e-05)
(0.00934075 -1.48543e-05 3.10054e-05)
(0.00946173 -1.46668e-05 3.1127e-05)
(0.00957224 -1.45092e-05 3.1419e-05)
(0.00968643 -1.41648e-05 3.18682e-05)
(0.00979685 -1.38048e-05 3.23735e-05)
(0.00989416 -1.33043e-05 3.27987e-05)
(0.00999075 -1.27385e-05 3.31534e-05)
(0.0100856 -1.20001e-05 3.34307e-05)
(0.0101706 -1.10699e-05 3.36016e-05)
(0.0102427 -1.00632e-05 3.37196e-05)
(0.0103142 -8.87151e-06 3.39049e-05)
(0.0103823 -7.58901e-06 3.41251e-05)
(0.0104459 -6.17436e-06 3.43241e-05)
(0.0132054 -6.51308e-06 4.45543e-05)
(0.013242 -3.87452e-06 4.47686e-05)
(0.0132603 -1.16323e-06 4.50459e-05)
(0.0132741 1.52586e-06 4.53342e-05)
(0.013274 4.20641e-06 4.56215e-05)
(0.0132589 6.96478e-06 4.59073e-05)
(0.0132241 9.68375e-06 4.62252e-05)
(0.0131761 1.22826e-05 4.67668e-05)
(0.0131058 1.45713e-05 4.74372e-05)
(0.0130225 1.6743e-05 4.81234e-05)
(0.0129287 1.87818e-05 4.8662e-05)
(0.0128175 2.04158e-05 4.89949e-05)
(0.0126974 2.1882e-05 4.91941e-05)
(0.0125645 2.30049e-05 4.92798e-05)
(0.012432 2.36993e-05 4.93772e-05)
(0.0122951 2.43609e-05 4.94972e-05)
(0.0121515 2.46261e-05 4.95815e-05)
(0.012005 2.48259e-05 4.95875e-05)
(0.0118631 2.47941e-05 4.949e-05)
(0.0117217 2.44143e-05 4.93855e-05)
(0.0115797 2.40945e-05 4.93362e-05)
(0.0114421 2.35679e-05 4.91864e-05)
(0.01131 2.29082e-05 4.90559e-05)
(0.0111804 2.21906e-05 4.90388e-05)
(0.0110522 2.14703e-05 4.91552e-05)
(0.0109309 2.05896e-05 4.9158e-05)
(0.0108129 1.97109e-05 4.90805e-05)
(0.0107025 1.89513e-05 4.8779e-05)
(0.0105983 1.80996e-05 4.81439e-05)
(0.0104932 1.72319e-05 4.74064e-05)
(0.0103983 1.63705e-05 4.73032e-05)
(0.0103062 1.56823e-05 4.79742e-05)
(0.0102154 1.51194e-05 4.90371e-05)
(0.0101291 1.47064e-05 5.04628e-05)
(0.0100469 1.41841e-05 5.1782e-05)
(0.00996473 1.37303e-05 5.26371e-05)
(0.00988648 1.32208e-05 5.26026e-05)
(0.00980878 1.28692e-05 5.23006e-05)
(0.00973344 1.26019e-05 5.23621e-05)
(0.00966124 1.23222e-05 5.29648e-05)
(0.00958869 1.19975e-05 5.37148e-05)
(0.0095228 1.14756e-05 5.42453e-05)
(0.00945425 1.09475e-05 5.43809e-05)
(0.00939314 1.04797e-05 5.43064e-05)
(0.00933215 1.01098e-05 5.38247e-05)
(0.00927501 9.7022e-06 5.31956e-05)
(0.00922194 9.20466e-06 5.27226e-05)
(0.00917185 8.75403e-06 5.23696e-05)
(0.00912114 8.319e-06 5.19953e-05)
(0.00907535 7.67973e-06 5.14862e-05)
(0.00903571 6.86598e-06 5.04449e-05)
(0.00900292 6.00929e-06 4.903e-05)
(0.00897314 5.24296e-06 4.75963e-05)
(0.00895291 4.34077e-06 4.61434e-05)
(0.00893572 3.32461e-06 4.46655e-05)
(0.00892393 2.14797e-06 4.39725e-05)
(0.00892508 8.56526e-07 4.4349e-05)
(0.00893162 -3.65477e-07 4.50015e-05)
(0.00894941 -1.93588e-06 4.53334e-05)
(0.0089721 -3.36257e-06 4.51096e-05)
(0.00900991 -4.78905e-06 4.50679e-05)
(0.00905109 -6.36828e-06 4.49965e-05)
(0.00910838 -7.95304e-06 4.53723e-05)
(0.00917342 -9.6688e-06 4.59911e-05)
(0.00924803 -1.09758e-05 4.6068e-05)
(0.00933412 -1.2432e-05 4.60124e-05)
(0.00942672 -1.40804e-05 4.62936e-05)
(0.00952697 -1.57139e-05 4.63679e-05)
(0.00963747 -1.71359e-05 4.62309e-05)
(0.00975895 -1.8501e-05 4.59148e-05)
(0.00988383 -1.97577e-05 4.52947e-05)
(0.0100178 -2.07245e-05 4.45227e-05)
(0.0101538 -2.15319e-05 4.40416e-05)
(0.0102946 -2.22661e-05 4.40126e-05)
(0.0104343 -2.2833e-05 4.4046e-05)
(0.0105798 -2.32764e-05 4.3888e-05)
(0.010722 -2.37997e-05 4.3579e-05)
(0.0108629 -2.41079e-05 4.32368e-05)
(0.0110107 -2.44191e-05 4.30074e-05)
(0.0111513 -2.46795e-05 4.28105e-05)
(0.0112929 -2.46949e-05 4.25732e-05)
(0.0114325 -2.48497e-05 4.22833e-05)
(0.0115691 -2.4902e-05 4.18798e-05)
(0.0117033 -2.47327e-05 4.15753e-05)
(0.0118336 -2.46515e-05 4.13169e-05)
(0.0119659 -2.4611e-05 4.10973e-05)
(0.0120925 -2.43423e-05 4.09486e-05)
(0.0122155 -2.39156e-05 4.10292e-05)
(0.0123344 -2.34002e-05 4.13209e-05)
(0.0124474 -2.27414e-05 4.17579e-05)
(0.012554 -2.19963e-05 4.22572e-05)
(0.0126534 -2.10867e-05 4.27586e-05)
(0.0127486 -1.99814e-05 4.31698e-05)
(0.0128328 -1.86478e-05 4.34514e-05)
(0.0129093 -1.70989e-05 4.36199e-05)
(0.0129811 -1.5337e-05 4.3754e-05)
(0.0130466 -1.33934e-05 4.3921e-05)
(0.0131036 -1.13006e-05 4.41184e-05)
(0.0131606 -9.03287e-06 4.43446e-05)
(0.0155904 -7.78575e-06 5.41542e-05)
(0.0156079 -3.98638e-06 5.42978e-05)
(0.0156244 -1.16101e-07 5.45549e-05)
(0.0156292 3.85426e-06 5.47969e-05)
(0.0156274 7.84749e-06 5.51022e-05)
(0.01561 1.1715e-05 5.54543e-05)
(0.0155547 1.54931e-05 5.58124e-05)
(0.0154849 1.91336e-05 5.63804e-05)
(0.0153958 2.26197e-05 5.71685e-05)
(0.0152893 2.57798e-05 5.79607e-05)
(0.0151715 2.85766e-05 5.85917e-05)
(0.0150427 3.08045e-05 5.903e-05)
(0.0149034 3.28066e-05 5.92823e-05)
(0.0147545 3.44352e-05 5.93994e-05)
(0.0146002 3.55762e-05 5.94814e-05)
(0.0144433 3.64088e-05 5.95705e-05)
(0.0142873 3.67358e-05 5.96413e-05)
(0.0141248 3.69498e-05 5.96205e-05)
(0.0139687 3.68854e-05 5.9582e-05)
(0.0138096 3.63727e-05 5.9663e-05)
(0.0136595 3.57346e-05 5.97457e-05)
(0.0135085 3.49961e-05 5.96147e-05)
(0.0133648 3.40392e-05 5.95292e-05)
(0.0132225 3.3114e-05 5.95659e-05)
(0.0130867 3.18772e-05 5.97214e-05)
(0.0129592 3.06271e-05 5.99484e-05)
(0.0128332 2.93571e-05 6.01913e-05)
(0.0127152 2.81418e-05 6.02466e-05)
(0.0126023 2.68284e-05 5.99887e-05)
(0.0124942 2.553e-05 5.95562e-05)
(0.0123937 2.42868e-05 5.96672e-05)
(0.0122935 2.32503e-05 6.05292e-05)
(0.0122002 2.23487e-05 6.1608e-05)
(0.0121126 2.1641e-05 6.28604e-05)
(0.0120265 2.0851e-05 6.40018e-05)
(0.0119426 2.0149e-05 6.45311e-05)
(0.0118639 1.93785e-05 6.4283e-05)
(0.0117869 1.87826e-05 6.37071e-05)
(0.011711 1.82926e-05 6.36207e-05)
(0.0116388 1.77728e-05 6.40747e-05)
(0.011571 1.72118e-05 6.49674e-05)
(0.0115049 1.64183e-05 6.5754e-05)
(0.0114438 1.55754e-05 6.61768e-05)
(0.0113878 1.48581e-05 6.63667e-05)
(0.0113332 1.42051e-05 6.59825e-05)
(0.0112816 1.34607e-05 6.53193e-05)
(0.0112352 1.2656e-05 6.46008e-05)
(0.0111918 1.20678e-05 6.40319e-05)
(0.0111526 1.13175e-05 6.34779e-05)
(0.0111169 1.02771e-05 6.27867e-05)
(0.0110891 8.96061e-06 6.18967e-05)
(0.0110662 7.56213e-06 6.04244e-05)
(0.0110532 6.35516e-06 5.90041e-05)
(0.0110424 5.08379e-06 5.78272e-05)
(0.0110418 3.484e-06 5.64791e-05)
(0.011048 1.61579e-06 5.59043e-05)
(0.0110654 -4.19386e-07 5.65195e-05)
(0.0110907 -2.3943e-06 5.71855e-05)
(0.0111266 -4.51245e-06 5.74023e-05)
(0.0111701 -6.64439e-06 5.67816e-05)
(0.0112253 -8.97986e-06 5.62207e-05)
(0.01129 -1.13824e-05 5.57844e-05)
(0.0113664 -1.37374e-05 5.60246e-05)
(0.011456 -1.61064e-05 5.64131e-05)
(0.0115498 -1.81437e-05 5.63035e-05)
(0.011658 -2.03507e-05 5.61892e-05)
(0.0117716 -2.28002e-05 5.63056e-05)
(0.0118968 -2.51147e-05 5.61976e-05)
(0.0120333 -2.72413e-05 5.5919e-05)
(0.0121711 -2.91476e-05 5.55717e-05)
(0.012319 -3.09348e-05 5.48906e-05)
(0.0124691 -3.22854e-05 5.41734e-05)
(0.0126226 -3.33585e-05 5.37665e-05)
(0.0127807 -3.42696e-05 5.38006e-05)
(0.0129384 -3.51577e-05 5.38351e-05)
(0.0130953 -3.57373e-05 5.37586e-05)
(0.0132519 -3.63154e-05 5.35452e-05)
(0.0134096 -3.67981e-05 5.32812e-05)
(0.0135614 -3.70235e-05 5.30724e-05)
(0.0137126 -3.72216e-05 5.29185e-05)
(0.0138631 -3.71552e-05 5.2734e-05)
(0.0140054 -3.70821e-05 5.24273e-05)
(0.0141467 -3.69432e-05 5.20591e-05)
(0.014286 -3.67371e-05 5.17956e-05)
(0.0144193 -3.64653e-05 5.15694e-05)
(0.0145502 -3.6104e-05 5.13255e-05)
(0.0146734 -3.55028e-05 5.11404e-05)
(0.014796 -3.47374e-05 5.11964e-05)
(0.0149086 -3.38371e-05 5.14047e-05)
(0.0150141 -3.26875e-05 5.1756e-05)
(0.0151158 -3.13749e-05 5.2192e-05)
(0.015204 -2.98583e-05 5.26754e-05)
(0.0152892 -2.81262e-05 5.30731e-05)
(0.0153613 -2.60498e-05 5.33212e-05)
(0.015411 -2.36565e-05 5.34575e-05)
(0.015452 -2.09764e-05 5.35433e-05)
(0.0154888 -1.80507e-05 5.36174e-05)
(0.0155194 -1.48801e-05 5.37309e-05)
(0.015557 -1.14455e-05 5.39393e-05)
(0.0175918 -7.97351e-06 6.29006e-05)
(0.0175903 -2.79088e-06 6.2977e-05)
(0.0175807 2.5213e-06 6.30931e-05)
(0.0175638 7.82695e-06 6.32352e-05)
(0.0175382 1.31086e-05 6.34454e-05)
(0.017499 1.8235e-05 6.38137e-05)
(0.0174423 2.33531e-05 6.43199e-05)
(0.017372 2.81536e-05 6.49912e-05)
(0.0172822 3.25605e-05 6.58688e-05)
(0.0171695 3.65731e-05 6.6701e-05)
(0.0170295 4.01899e-05 6.72978e-05)
(0.0168785 4.3283e-05 6.77207e-05)
(0.0167196 4.58393e-05 6.79083e-05)
(0.0165548 4.7848e-05 6.79227e-05)
(0.0163869 4.92571e-05 6.79055e-05)
(0.0162153 5.02764e-05 6.78805e-05)
(0.0160441 5.08003e-05 6.78448e-05)
(0.015873 5.10001e-05 6.77958e-05)
(0.0157034 5.07334e-05 6.78634e-05)
(0.0155367 5.00437e-05 6.81631e-05)
(0.0153736 4.90895e-05 6.83947e-05)
(0.0152177 4.79789e-05 6.84624e-05)
(0.015065 4.66964e-05 6.85489e-05)
(0.0149204 4.52732e-05 6.88102e-05)
(0.0147792 4.37085e-05 6.90842e-05)
(0.0146444 4.19603e-05 6.96089e-05)
(0.0145161 4.02205e-05 7.0286e-05)
(0.0143942 3.84464e-05 7.07535e-05)
(0.0142791 3.66726e-05 7.09906e-05)
(0.0141699 3.48827e-05 7.1132e-05)
(0.0140691 3.32029e-05 7.15386e-05)
(0.0139709 3.1654e-05 7.23642e-05)
(0.0138776 3.02693e-05 7.32166e-05)
(0.0137892 2.92322e-05 7.39682e-05)
(0.0137042 2.81727e-05 7.45442e-05)
(0.0136249 2.70664e-05 7.45916e-05)
(0.0135497 2.58946e-05 7.42537e-05)
(0.0134777 2.50033e-05 7.37098e-05)
(0.0134085 2.42457e-05 7.35775e-05)
(0.013344 2.34253e-05 7.3757e-05)
(0.0132831 2.25067e-05 7.4528e-05)
(0.0132248 2.137e-05 7.54247e-05)
(0.013173 2.01009e-05 7.6212e-05)
(0.0131268 1.90556e-05 7.658e-05)
(0.0130816 1.79876e-05 7.62545e-05)
(0.0130457 1.68051e-05 7.56604e-05)
(0.0130114 1.56766e-05 7.47144e-05)
(0.0129815 1.48345e-05 7.38934e-05)
(0.0129574 1.36373e-05 7.32315e-05)
(0.0129406 1.20122e-05 7.2444e-05)
(0.0129277 1.01133e-05 7.19129e-05)
(0.0129262 8.17003e-06 7.07783e-05)
(0.0129282 6.37725e-06 6.96051e-05)
(0.0129409 4.4836e-06 6.87906e-05)
(0.0129597 2.19237e-06 6.76903e-05)
(0.0129871 -4.60482e-07 6.73378e-05)
(0.0130254 -3.23705e-06 6.80567e-05)
(0.0130733 -6.06538e-06 6.86317e-05)
(0.0131326 -8.96838e-06 6.85789e-05)
(0.0132002 -1.19388e-05 6.75216e-05)
(0.0132768 -1.51173e-05 6.64074e-05)
(0.013367 -1.84e-05 6.54697e-05)
(0.0134673 -2.16867e-05 6.53403e-05)
(0.0135764 -2.49003e-05 6.52201e-05)
(0.0136932 -2.77884e-05 6.48786e-05)
(0.0138224 -3.07857e-05 6.47907e-05)
(0.0139597 -3.39324e-05 6.4758e-05)
(0.0141042 -3.69912e-05 6.45352e-05)
(0.0142567 -3.98736e-05 6.41327e-05)
(0.0144151 -4.24002e-05 6.36922e-05)
(0.0145775 -4.4569e-05 6.29595e-05)
(0.0147438 -4.62878e-05 6.24396e-05)
(0.0149112 -4.76925e-05 6.22959e-05)
(0.015079 -4.88085e-05 6.24711e-05)
(0.0152476 -4.98288e-05 6.25554e-05)
(0.0154145 -5.05849e-05 6.26323e-05)
(0.0155767 -5.10742e-05 6.26035e-05)
(0.015739 -5.14077e-05 6.25747e-05)
(0.015898 -5.16172e-05 6.25933e-05)
(0.0160495 -5.16111e-05 6.26194e-05)
(0.0161994 -5.13426e-05 6.25673e-05)
(0.0163439 -5.10902e-05 6.23389e-05)
(0.0164829 -5.07444e-05 6.20755e-05)
(0.0166158 -5.01212e-05 6.1873e-05)
(0.0167456 -4.95065e-05 6.17172e-05)
(0.0168715 -4.88153e-05 6.14929e-05)
(0.0169889 -4.78288e-05 6.13328e-05)
(0.0171001 -4.65233e-05 6.13462e-05)
(0.0172006 -4.49593e-05 6.14552e-05)
(0.0172963 -4.32029e-05 6.17067e-05)
(0.0173705 -4.12259e-05 6.20038e-05)
(0.0174259 -3.89466e-05 6.23549e-05)
(0.0174679 -3.63018e-05 6.25689e-05)
(0.0175025 -3.32374e-05 6.26358e-05)
(0.0175284 -2.9834e-05 6.26714e-05)
(0.0175468 -2.60247e-05 6.26801e-05)
(0.0175578 -2.19471e-05 6.2618e-05)
(0.0175696 -1.75566e-05 6.26326e-05)
(0.0175818 -1.29004e-05 6.27581e-05)
(0.0192955 -6.82258e-06 7.08314e-05)
(0.0192659 -2.60629e-07 7.08131e-05)
(0.0192313 6.46196e-06 7.08142e-05)
(0.0191898 1.32772e-05 7.08681e-05)
(0.0191399 1.99993e-05 7.09946e-05)
(0.0190737 2.64871e-05 7.13461e-05)
(0.0189931 3.27891e-05 7.19189e-05)
(0.0188994 3.8756e-05 7.26118e-05)
(0.0187879 4.43225e-05 7.34002e-05)
(0.0186638 4.93545e-05 7.41043e-05)
(0.0185232 5.37026e-05 7.458e-05)
(0.0183569 5.7406e-05 7.48783e-05)
(0.018182 6.04422e-05 7.49049e-05)
(0.0180032 6.28941e-05 7.47045e-05)
(0.0178224 6.46897e-05 7.44665e-05)
(0.0176399 6.58171e-05 7.42678e-05)
(0.0174595 6.63091e-05 7.41317e-05)
(0.0172788 6.63996e-05 7.40626e-05)
(0.0171034 6.60396e-05 7.4261e-05)
(0.0169301 6.50638e-05 7.47172e-05)
(0.0167624 6.37787e-05 7.51033e-05)
(0.0166026 6.22819e-05 7.54991e-05)
(0.0164459 6.05639e-05 7.59532e-05)
(0.0162982 5.86559e-05 7.65208e-05)
(0.0161561 5.64666e-05 7.70957e-05)
(0.0160215 5.42541e-05 7.79628e-05)
(0.0158928 5.19141e-05 7.90532e-05)
(0.0157718 4.9606e-05 7.98903e-05)
(0.0156568 4.72066e-05 8.05769e-05)
(0.015551 4.47939e-05 8.12316e-05)
(0.0154504 4.25572e-05 8.19555e-05)
(0.0153541 4.05774e-05 8.25399e-05)
(0.0152658 3.86996e-05 8.29408e-05)
(0.0151818 3.71193e-05 8.31092e-05)
(0.0151007 3.56311e-05 8.29281e-05)
(0.0150232 3.40717e-05 8.25198e-05)
(0.0149512 3.24843e-05 8.22214e-05)
(0.0148841 3.11702e-05 8.20182e-05)
(0.0148218 3.00053e-05 8.19368e-05)
(0.0147657 2.87413e-05 8.18608e-05)
(0.0147129 2.74049e-05 8.22794e-05)
(0.0146664 2.58303e-05 8.30851e-05)
(0.0146252 2.40598e-05 8.40493e-05)
(0.0145889 2.25596e-05 8.41773e-05)
(0.0145594 2.09772e-05 8.3963e-05)
(0.0145361 1.92324e-05 8.35074e-05)
(0.0145182 1.76651e-05 8.24831e-05)
(0.0145066 1.63591e-05 8.15889e-05)
(0.0145009 1.46459e-05 8.08616e-05)
(0.0145022 1.23663e-05 8.01396e-05)
(0.0145127 9.7312e-06 8.00473e-05)
(0.0145302 7.09238e-06 7.94621e-05)
(0.0145555 4.59558e-06 7.86893e-05)
(0.0145893 2.11333e-06 7.80077e-05)
(0.0146319 -9.39434e-07 7.72191e-05)
(0.0146859 -4.51226e-06 7.72178e-05)
(0.0147485 -8.21849e-06 7.77628e-05)
(0.0148222 -1.19917e-05 7.80275e-05)
(0.0149052 -1.56707e-05 7.75366e-05)
(0.0149995 -1.94209e-05 7.62888e-05)
(0.0151018 -2.36117e-05 7.48642e-05)
(0.0152174 -2.79246e-05 7.35909e-05)
(0.0153431 -3.21057e-05 7.29815e-05)
(0.0154774 -3.59886e-05 7.22484e-05)
(0.0156203 -3.97086e-05 7.16927e-05)
(0.0157728 -4.35984e-05 7.16585e-05)
(0.0159268 -4.75466e-05 7.14924e-05)
(0.0160898 -5.13532e-05 7.11981e-05)
(0.0162563 -5.47647e-05 7.06948e-05)
(0.0164301 -5.77489e-05 7.01433e-05)
(0.0166023 -6.03596e-05 6.94849e-05)
(0.0167789 -6.24456e-05 6.92936e-05)
(0.0169536 -6.40136e-05 6.95369e-05)
(0.0171287 -6.5304e-05 6.98952e-05)
(0.0173005 -6.62815e-05 7.00997e-05)
(0.0174699 -6.69376e-05 7.03681e-05)
(0.0176368 -6.74594e-05 7.06172e-05)
(0.0177999 -6.76271e-05 7.09763e-05)
(0.0179559 -6.75847e-05 7.13488e-05)
(0.0181043 -6.73056e-05 7.16323e-05)
(0.0182501 -6.67265e-05 7.17552e-05)
(0.0183873 -6.61098e-05 7.16781e-05)
(0.0185214 -6.53653e-05 7.15592e-05)
(0.0186457 -6.43668e-05 7.14383e-05)
(0.0187661 -6.33088e-05 7.13311e-05)
(0.0188778 -6.20055e-05 7.11597e-05)
(0.0189834 -6.03866e-05 7.1073e-05)
(0.0190815 -5.84756e-05 7.10614e-05)
(0.0191686 -5.62558e-05 7.11323e-05)
(0.0192308 -5.37035e-05 7.125e-05)
(0.0192749 -5.08004e-05 7.13947e-05)
(0.0193097 -4.75673e-05 7.15345e-05)
(0.0193335 -4.39311e-05 7.15439e-05)
(0.0193433 -3.97547e-05 7.13804e-05)
(0.0193462 -3.52062e-05 7.12462e-05)
(0.0193429 -3.02831e-05 7.11088e-05)
(0.0193331 -2.49247e-05 7.08994e-05)
(0.0193202 -1.92895e-05 7.07697e-05)
(0.0193081 -1.31663e-05 7.07808e-05)
(0.0207074 -4.3923e-06 7.78232e-05)