/*--------------------------------*- C++ -*----------------------------------*\
| =========                 |                                                 |
| \\      /  F ield         | OpenFOAM: The Open Source CFD Toolbox           |
|  \\    /   O peration     | Version:  2306                                  |
|   \\  /    A nd           | Website:  www.openfoam.com                      |
|    \\/     M anipulation  |                                                 |
\*---------------------------------------------------------------------------*/
// * * * * * * * * * * * * * * * * * * * * * * * * * * * * * * * * * * * * * //
FoamFile
{
    version         2;
    format          ascii;
    class           volVectorField;
    location        "2977.26";
    object          U;
}

dimensions      [ 0 1 -1 0 0 0 0 ];

internalField   nonuniform List<vector> 
14751
(
(0.00415514 -1.10284e-07 0)
(0.00414662 -2.69885e-07 0)
(0.00414333 1.16655e-07 -5.53167e-26)
(0.00412464 2.96488e-07 1.66296e-25)
(0.00410583 5.39837e-07 -1.15196e-25)
(0.00407758 7.81965e-07 1.10402e-26)
(0.00404472 9.68455e-07 -1.10638e-26)
(0.00400696 1.16444e-06 1.12982e-25)
(0.00396463 1.32622e-06 3.38685e-27)
(0.00391897 1.46669e-06 5.68779e-28)
(0.00387049 1.5875e-06 2.85542e-27)
(0.00381991 1.68766e-06 -2.85242e-27)
(0.00376768 1.76724e-06 6.78853e-27)
(0.0037147 1.82331e-06 -6.77289e-27)
(0.00366146 1.86107e-06 -4.80682e-25)
(0.00360852 1.87788e-06 8.17315e-27)
(0.00355633 1.88317e-06 2.50783e-25)
(0.00350515 1.86882e-06 1.74424e-26)
(0.00345544 1.84482e-06 -8.87427e-27)
(0.00340736 1.80812e-06 9.51011e-27)
(0.00336117 1.76417e-06 -3.81579e-26)
(0.00331699 1.7112e-06 1.9684e-26)
(0.00327491 1.65712e-06 -3.02039e-26)
(0.00323494 1.59369e-06 3.04592e-26)
(0.00319725 1.53024e-06 4.10801e-26)
(0.00316173 1.4631e-06 -3.13244e-26)
(0.00312846 1.39545e-06 0)
(0.00309735 1.32633e-06 0)
(0.0030684 1.25739e-06 4.2267e-26)
(0.00304152 1.18897e-06 1.06001e-26)
(0.00301667 1.12121e-06 -3.16595e-26)
(0.00299378 1.05448e-06 -2.10631e-26)
(0.00297275 9.89062e-07 0)
(0.00295354 9.24981e-07 -2.085e-26)
(0.00293606 8.62048e-07 -5.1678e-27)
(0.00292026 8.00632e-07 1.02615e-26)
(0.0029061 7.40693e-07 -5.09483e-27)
(0.00289345 6.82913e-07 0)
(0.00288227 6.25243e-07 0)
(0.00287255 5.70207e-07 0)
(0.00286426 5.15972e-07 -2.40635e-27)
(0.00285725 4.63692e-07 -6.07743e-25)
(0.00285145 4.14111e-07 0)
(0.00284683 3.64196e-07 -1.47591e-25)
(0.00284331 3.15346e-07 0)
(0.00284096 2.66041e-07 5.50881e-28)
(0.00283973 2.16638e-07 -1.39941e-25)
(0.00283963 1.67797e-07 -1.3198e-28)
(0.00284061 1.18114e-07 2.65318e-30)
(0.00284272 6.86081e-08 -1.23134e-28)
(0.00284594 1.97602e-08 1.27459e-25)
(0.00285021 -2.91015e-08 0)
(0.00285555 -7.8284e-08 9.2969e-28)
(0.00286197 -1.28307e-07 -9.28442e-28)
(0.0028695 -1.79202e-07 1.74999e-27)
(0.00287813 -2.30323e-07 -1.74858e-27)
(0.00288789 -2.82766e-07 -1.63598e-27)
(0.00289879 -3.35415e-07 -1.01205e-25)
(0.00291085 -3.88125e-07 -9.90607e-26)
(0.00292404 -4.42155e-07 -3.8375e-25)
(0.00293836 -4.95721e-07 5.70337e-27)
(0.00295388 -5.52188e-07 -2.79114e-27)
(0.00297061 -6.09578e-07 6.68259e-25)
(0.00298868 -6.66901e-07 -4.94081e-27)
(0.00300812 -7.26433e-07 2.40747e-27)
(0.00302889 -7.84565e-07 0)
(0.00305099 -8.43878e-07 1.36547e-25)
(0.0030745 -9.02895e-07 -4.00943e-27)
(0.00309944 -9.61796e-07 -5.74279e-26)
(0.00312577 -1.02006e-06 -5.29223e-26)
(0.00315351 -1.07754e-06 4.83708e-26)
(0.00318265 -1.13482e-06 0)
(0.00321321 -1.19108e-06 0)
(0.00324518 -1.24632e-06 -4.01208e-27)
(0.00327852 -1.30335e-06 -2.5817e-26)
(0.00331342 -1.35797e-06 2.85086e-27)
(0.00334966 -1.40876e-06 -5.89534e-28)
(0.00338737 -1.4626e-06 -5.81028e-28)
(0.00342638 -1.5065e-06 -5.70171e-28)
(0.0034666 -1.55974e-06 -1.50207e-26)
(0.00350802 -1.59695e-06 -5.19739e-27)
(0.00355039 -1.64206e-06 2.79607e-27)
(0.0035939 -1.67506e-06 4.58224e-28)
(0.00363799 -1.70699e-06 0)
(0.00368277 -1.73239e-06 2.69841e-26)
(0.00372791 -1.74647e-06 3.27459e-26)
(0.00377311 -1.75232e-06 -3.94467e-26)
(0.00381813 -1.74642e-06 0)
(0.00386239 -1.72243e-06 0)
(0.00390556 -1.69025e-06 0)
(0.00394721 -1.62921e-06 1.03775e-25)
(0.00398612 -1.55306e-06 8.0902e-28)
(0.00402297 -1.47456e-06 7.1817e-27)
(0.0040555 -1.33637e-06 -1.57213e-27)
(0.0040845 -1.23771e-06 -1.31797e-27)
(0.00410789 -1.04824e-06 1.32407e-27)
(0.0041273 -9.36584e-07 -1.65678e-26)
(0.0041378 -7.36063e-07 2.19488e-28)
(0.004153 -7.62708e-07 0)
(0.00611479 3.35349e-07 -3.11445e-29)
(0.00611293 1.34476e-07 5.12584e-25)
(0.00611681 8.13561e-07 8.86511e-26)
(0.00609768 1.2203e-06 -1.71837e-25)
(0.00607706 1.66418e-06 -1.11406e-25)
(0.00604107 2.14556e-06 4.4849e-25)
(0.00599692 2.49755e-06 1.75086e-23)
(0.00594395 2.85491e-06 -8.31418e-26)
(0.00588266 3.14176e-06 -2.43827e-23)
(0.00581486 3.37457e-06 -4.15118e-25)
(0.00574132 3.55967e-06 -3.17115e-23)
(0.00566319 3.69738e-06 0)
(0.00558126 3.79126e-06 3.81761e-23)
(0.00549694 3.8368e-06 2.66382e-24)
(0.00541108 3.84468e-06 -5.1447e-24)
(0.00532473 3.81146e-06 -1.65627e-25)
(0.00523865 3.75663e-06 5.91093e-24)
(0.00515344 3.66743e-06 -3.11196e-24)
(0.00506992 3.5613e-06 -2.30602e-23)
(0.00498844 3.43531e-06 -3.34528e-24)
(0.00490952 3.29814e-06 2.73254e-26)
(0.00483345 3.1477e-06 2.85568e-23)
(0.00476043 2.99877e-06 -3.27454e-23)
(0.00469059 2.83719e-06 3.68549e-23)
(0.00462424 2.67779e-06 -3.72469e-24)
(0.00456128 2.5161e-06 2.93794e-26)
(0.00450186 2.35705e-06 0)
(0.0044459 2.19942e-06 -3.03362e-23)
(0.00439343 2.04567e-06 -1.93404e-24)
(0.00434434 1.89661e-06 1.88972e-24)
(0.00429856 1.75229e-06 -1.87889e-24)
(0.004256 1.61318e-06 1.04992e-26)
(0.00421655 1.47953e-06 -1.30987e-23)
(0.00418011 1.35123e-06 -1.39164e-23)
(0.00414656 1.22812e-06 -9.21497e-25)
(0.00411583 1.1097e-06 -1.36764e-23)
(0.00408783 9.96223e-07 1.44217e-23)
(0.00406238 8.88525e-07 -5.712e-27)
(0.00403943 7.83566e-07 -8.82291e-25)
(0.00401889 6.83896e-07 4.3134e-25)
(0.00400074 5.87095e-07 -4.339e-27)
(0.00398478 4.95494e-07 -2.25342e-27)
(0.00397092 4.08824e-07 0)
(0.0039591 3.24066e-07 1.01391e-25)
(0.00394922 2.42041e-07 1.97399e-25)
(0.00394134 1.60642e-07 -3.31671e-24)
(0.0039354 8.01241e-08 -1.33759e-24)
(0.0039314 1.5096e-09 1.40023e-24)
(0.00392928 -7.78168e-08 0)
(0.0039291 -1.56664e-07 0)
(0.00393083 -2.33923e-07 3.03575e-25)
(0.0039344 -3.10196e-07 -4.2822e-26)
(0.00393982 -3.86559e-07 -1.62383e-25)
(0.00394713 -4.63808e-07 4.50417e-27)
(0.00395635 -5.42153e-07 3.10066e-25)
(0.0039675 -6.20638e-07 -1.52535e-25)
(0.0039806 -7.01106e-07 0)
(0.00399569 -7.81998e-07 7.00545e-26)
(0.00401281 -8.63482e-07 6.74714e-26)
(0.00403192 -9.46166e-07 7.67323e-25)
(0.00405306 -1.02904e-06 -2.19349e-26)
(0.00407632 -1.11579e-06 -2.24415e-26)
(0.00410172 -1.20512e-06 -8.17616e-24)
(0.00412943 -1.29576e-06 -6.89861e-24)
(0.00415947 -1.38998e-06 6.53378e-24)
(0.00419183 -1.4832e-06 0)
(0.00422652 -1.57886e-06 -7.88865e-25)
(0.00426366 -1.67612e-06 7.00546e-25)
(0.00430325 -1.77399e-06 3.91996e-26)
(0.00434528 -1.87214e-06 4.66459e-24)
(0.00438977 -1.97026e-06 -3.30506e-26)
(0.00443672 -2.0693e-06 -4.52932e-25)
(0.00448617 -2.16791e-06 -6.40703e-24)
(0.0045381 -2.2655e-06 -6.05203e-24)
(0.00459248 -2.36739e-06 -5.81841e-25)
(0.00464956 -2.46776e-06 6.05349e-25)
(0.004709 -2.56189e-06 3.61628e-24)
(0.004771 -2.66199e-06 2.80864e-24)
(0.00483533 -2.74551e-06 -2.01764e-25)
(0.00490191 -2.84231e-06 2.12464e-25)
(0.00497071 -2.91337e-06 -4.6174e-25)
(0.00504135 -2.99422e-06 -2.23857e-27)
(0.00511406 -3.05412e-06 1.65672e-25)
(0.00518806 -3.10743e-06 -4.13705e-25)
(0.00526348 -3.149e-06 2.30569e-25)
(0.00533976 -3.16793e-06 5.71751e-24)
(0.00541642 -3.16983e-06 -1.98211e-25)
(0.00549305 -3.14724e-06 2.26125e-25)
(0.00556874 -3.08891e-06 0)
(0.00564294 -3.01104e-06 -1.40932e-25)
(0.00571484 -2.87187e-06 6.98175e-26)
(0.00578265 -2.69959e-06 9.30978e-24)
(0.00584725 -2.51144e-06 2.88802e-26)
(0.00590542 -2.21314e-06 -2.0004e-25)
(0.00595832 -1.96295e-06 1.30966e-25)
(0.00600307 -1.56107e-06 3.44617e-24)
(0.00604198 -1.24536e-06 4.2197e-26)
(0.00606898 -8.82198e-07 1.95599e-26)
(0.00610199 -9.06338e-07 0)
(0.00784524 1.04881e-07 -2.81283e-29)
(0.00784782 -5.88835e-08 -4.61667e-25)
(0.00785644 1.27965e-06 8.9637e-26)
(0.00783783 2.26669e-06 -9.02253e-26)
(0.0078167 3.23365e-06 -1.98741e-23)
(0.00777643 4.31732e-06 2.59036e-23)
(0.00772526 5.14256e-06 -1.60855e-23)
(0.00766236 5.97934e-06 1.63009e-25)
(0.00758823 6.68145e-06 2.237e-23)
(0.00750502 7.27171e-06 5.06358e-23)
(0.00741372 7.76541e-06 -2.99419e-23)
(0.00731578 8.15503e-06 1.90418e-24)
(0.00721228 8.45101e-06 -3.4939e-23)
(0.00710496 8.64175e-06 0)
(0.006995 8.74265e-06 -7.55003e-23)
(0.00688376 8.75074e-06 -5.19212e-24)
(0.0067723 8.69842e-06 0)
(0.00666144 8.56632e-06 0)
(0.00655233 8.3854e-06 1.8232e-23)
(0.00644545 8.15545e-06 6.20335e-24)
(0.00634153 7.88981e-06 0)
(0.00624099 7.58998e-06 -1.98756e-23)
(0.00614415 7.28137e-06 2.04388e-23)
(0.0060512 6.9413e-06 8.26988e-23)
(0.00596262 6.59685e-06 5.58471e-23)
(0.00587829 6.24327e-06 -7.0976e-24)
(0.00579845 5.88906e-06 6.386e-23)
(0.00572303 5.53436e-06 2.85439e-23)
(0.00565208 5.1841e-06 -3.58883e-24)
(0.00558549 4.84118e-06 3.56673e-24)
(0.0055232 4.50603e-06 5.71805e-23)
(0.00546509 4.18033e-06 -6.0575e-23)
(0.00541105 3.86494e-06 -3.54682e-23)
(0.00536096 3.56022e-06 -1.76257e-23)
(0.00531466 3.26595e-06 0)
(0.00527207 2.98194e-06 1.21475e-23)
(0.00523308 2.70807e-06 -1.37327e-23)
(0.00519749 2.44632e-06 2.88806e-23)
(0.00516521 2.19118e-06 0)
(0.00513614 1.94769e-06 0)
(0.00511021 1.71041e-06 8.11867e-25)
(0.00508723 1.48398e-06 -1.6072e-24)
(0.00506711 1.26771e-06 7.95555e-25)
(0.00504975 1.05548e-06 -1.24343e-23)
(0.00503505 8.49518e-07 -1.22077e-23)
(0.00502306 6.4507e-07 2.99345e-24)
(0.00501371 4.42928e-07 1.46641e-24)
(0.00500698 2.44406e-07 -1.25755e-24)
(0.00500284 4.46516e-08 -2.20515e-25)
(0.00500132 -1.54527e-07 4.32717e-26)
(0.0050024 -3.50302e-07 -1.6704e-24)
(0.00500601 -5.44333e-07 0)
(0.00501215 -7.38818e-07 -3.12316e-25)
(0.00502088 -9.35709e-07 4.92926e-24)
(0.00503222 -1.13512e-06 3.02694e-25)
(0.00504619 -1.33577e-06 9.81248e-24)
(0.00506284 -1.5408e-06 -1.89986e-26)
(0.0050822 -1.74771e-06 -5.4854e-25)
(0.00510432 -1.95656e-06 -1.01755e-24)
(0.0051292 -2.16913e-06 1.01749e-24)
(0.00515686 -2.38304e-06 0)
(0.00518742 -2.60504e-06 1.55108e-23)
(0.00522091 -2.83303e-06 6.07274e-24)
(0.00525748 -3.06403e-06 -6.61954e-24)
(0.00529716 -3.30235e-06 -7.78206e-24)
(0.00533997 -3.53956e-06 -8.85783e-24)
(0.00538589 -3.78184e-06 -2.35907e-23)
(0.00543508 -4.02702e-06 -1.24411e-24)
(0.00548752 -4.27352e-06 1.24689e-24)
(0.00554318 -4.52029e-06 -2.20844e-23)
(0.00560209 -4.76686e-06 1.6141e-23)
(0.00566425 -5.01435e-06 1.46e-23)
(0.00572967 -5.26027e-06 4.98866e-24)
(0.00579832 -5.50329e-06 7.27735e-24)
(0.00587018 -5.75318e-06 1.14235e-24)
(0.00594548 -5.99629e-06 -1.14623e-24)
(0.00602381 -6.2275e-06 -3.41345e-24)
(0.00610536 -6.46464e-06 7.96518e-24)
(0.00618986 -6.67111e-06 3.81061e-25)
(0.00627721 -6.89412e-06 -3.82477e-25)
(0.00636734 -7.06785e-06 4.35712e-25)
(0.00645974 -7.2498e-06 -1.15851e-24)
(0.00655464 -7.38828e-06 -3.51109e-24)
(0.00665109 -7.50537e-06 -4.57692e-25)
(0.00674918 -7.59077e-06 4.59485e-25)
(0.00684817 -7.62273e-06 -5.67343e-24)
(0.0069474 -7.61125e-06 -5.26062e-26)
(0.00704632 -7.54046e-06 8.74553e-25)
(0.00714376 -7.39035e-06 -4.60552e-25)
(0.00723895 -7.18538e-06 -2.57975e-25)
(0.00733079 -6.85144e-06 1.7051e-23)
(0.00741708 -6.44632e-06 -8.52516e-24)
(0.00749881 -5.98622e-06 -1.65307e-23)
(0.00757235 -5.3361e-06 1.57365e-23)
(0.007639 -4.73345e-06 -2.11943e-25)
(0.00769579 -3.89938e-06 -2.85863e-24)
(0.00774532 -3.16654e-06 5.15895e-24)
(0.00778177 -2.46895e-06 -2.31368e-29)
(0.00782531 -2.241e-06 2.32864e-29)
(0.00938744 -3.2468e-07 -2.56852e-29)
(0.00939228 -2.94512e-07 2.58426e-29)
(0.00940306 1.90593e-06 -8.01986e-24)
(0.00938452 3.71982e-06 -1.29778e-23)
(0.00936244 5.42108e-06 -1.81074e-23)
(0.00931868 7.31443e-06 -2.40524e-23)
(0.00926185 8.8146e-06 -5.85226e-23)
(0.00919107 1.03178e-05 7.04117e-23)
(0.00910682 1.16066e-05 -8.19988e-23)
(0.00901147 1.27096e-05 4.85953e-23)
(0.0089062 1.36505e-05 -5.44088e-23)
(0.00879268 1.44099e-05 0)
(0.00867226 1.50091e-05 0)
(0.00854692 1.54265e-05 -4.47385e-24)
(0.00841807 1.56807e-05 7.84845e-23)
(0.00828733 1.57717e-05 0)
(0.00815597 1.57426e-05 0)
(0.00802503 1.55724e-05 1.73014e-22)
(0.00789585 1.53044e-05 -1.68458e-22)
(0.00776907 1.49458e-05 -1.9749e-22)
(0.00764555 1.45135e-05 -1.79371e-22)
(0.00752583 1.4017e-05 -2.45165e-23)
(0.0074103 1.34914e-05 2.00023e-22)
(0.00729922 1.29092e-05 -8.92873e-23)
(0.00719317 1.23093e-05 -4.51383e-23)
(0.00709206 1.16896e-05 -6.47309e-24)
(0.00699618 1.10623e-05 -1.57848e-22)
(0.00690544 1.04306e-05 -6.64349e-24)
(0.00681997 9.80262e-06 6.60826e-24)
(0.00673962 9.18419e-06 0)
(0.00666433 8.57676e-06 -1.59437e-22)
(0.00659401 7.98371e-06 1.65722e-22)
(0.0065285 7.40696e-06 4.62357e-23)
(0.0064677 6.84766e-06 2.29963e-23)
(0.00641142 6.30574e-06 3.26534e-24)
(0.00635957 5.78232e-06 5.17837e-23)
(0.00631201 5.27526e-06 5.13083e-23)
(0.00626854 4.78859e-06 2.22226e-23)
(0.00622906 4.31445e-06 3.14834e-24)
(0.00619343 3.86151e-06 4.80201e-23)
(0.00616157 3.41852e-06 3.05461e-24)
(0.0061333 2.9926e-06 -1.51342e-24)
(0.00610852 2.58387e-06 2.37045e-23)
(0.00608711 2.18115e-06 1.16546e-23)
(0.00606898 1.79068e-06 6.68526e-28)
(0.00605416 1.40329e-06 -6.96058e-25)
(0.00604258 1.02028e-06 1.03481e-24)
(0.00603422 6.42814e-07 -3.39918e-25)
(0.00602904 2.64025e-07 0)
(0.00602707 -1.14159e-07 -7.9541e-26)
(0.00602829 -4.86948e-07 1.33489e-24)
(0.00603264 -8.57603e-07 4.89315e-24)
(0.00604012 -1.2289e-06 0)
(0.00605078 -1.60472e-06 -4.62548e-24)
(0.00606466 -1.98503e-06 5.52348e-25)
(0.00608178 -2.36851e-06 -9.24296e-24)
(0.0061022 -2.75944e-06 1.0322e-24)
(0.00612595 -3.15466e-06 -2.02644e-24)
(0.0061531 -3.55404e-06 1.66097e-23)
(0.00618365 -3.96222e-06 -2.90872e-23)
(0.00621764 -4.37241e-06 -9.18109e-25)
(0.00625518 -4.79647e-06 -1.2063e-23)
(0.0062963 -5.22938e-06 -3.27268e-24)
(0.00634115 -5.66622e-06 1.2519e-23)
(0.00638975 -6.11615e-06 2.50527e-23)
(0.00644214 -6.56523e-06 1.10871e-23)
(0.00649828 -7.02209e-06 2.07969e-23)
(0.00655831 -7.48175e-06 -2.3353e-24)
(0.00662224 -7.94416e-06 -3.3656e-23)
(0.00668998 -8.40609e-06 1.656e-23)
(0.00676158 -8.86673e-06 -1.51193e-23)
(0.00683701 -9.327e-06 -1.36677e-23)
(0.00691626 -9.78295e-06 0)
(0.00699928 -1.02324e-05 0)
(0.00708603 -1.06891e-05 0)
(0.00717671 -1.11289e-05 0)
(0.00727085 -1.15499e-05 0)
(0.00736861 -1.19713e-05 -1.09502e-23)
(0.00746967 -1.23467e-05 1.0638e-24)
(0.00757391 -1.2736e-05 0)
(0.0076812 -1.30469e-05 3.35422e-24)
(0.00779093 -1.33553e-05 9.39498e-25)
(0.00790327 -1.35913e-05 9.55e-24)
(0.00801715 -1.37823e-05 1.45472e-25)
(0.0081326 -1.39099e-05 4.23456e-25)
(0.00824873 -1.39411e-05 6.64069e-25)
(0.00836473 -1.38895e-05 2.15374e-23)
(0.00847988 -1.37296e-05 7.65179e-25)
(0.00859282 -1.34315e-05 0)
(0.00870259 -1.3025e-05 -2.96384e-23)
(0.00880786 -1.24054e-05 -1.567e-23)
(0.00890617 -1.16598e-05 0)
(0.00899849 -1.08013e-05 1.5448e-23)
(0.00908113 -9.67044e-06 -1.46443e-23)
(0.00915535 -8.55807e-06 -2.65536e-23)
(0.00921849 -7.15308e-06 1.16945e-23)
(0.00927316 -5.83551e-06 -4.99113e-24)
(0.00931447 -4.67837e-06 3.43522e-24)
(0.00936337 -3.96999e-06 -8.35156e-27)
(0.0107765 -8.04144e-07 0)
(0.0107814 -4.11875e-07 4.13979e-26)
(0.0107918 2.8316e-06 7.50351e-24)
(0.010772 5.67479e-06 1.18114e-23)
(0.0107476 8.29813e-06 2.57022e-26)
(0.0107002 1.11703e-05 -4.31224e-23)
(0.0106376 1.35262e-05 1.61477e-22)
(0.0105594 1.58513e-05 -6.49245e-23)
(0.0104659 1.78682e-05 7.60418e-23)
(0.0103598 1.96118e-05 -8.66247e-23)
(0.0102424 2.1112e-05 9.7298e-23)
(0.0101156 2.2338e-05 0)
(0.00998085 2.33211e-05 -3.82369e-24)
(0.00984045 2.40287e-05 2.58005e-22)
(0.00969594 2.44824e-05 0)
(0.00954915 2.46869e-05 -9.27285e-24)
(0.00940151 2.46938e-05 1.89923e-23)
(0.00925421 2.44858e-05 -1.68855e-22)
(0.00910877 2.41164e-05 1.65518e-22)
(0.00896592 2.3604e-05 5.6913e-26)
(0.00882662 2.29691e-05 1.7627e-22)
(0.0086915 2.22322e-05 0)
(0.00856101 2.14359e-05 -3.68904e-22)
(0.00843547 2.0554e-05 1.18384e-23)
(0.0083155 1.96345e-05 -1.17844e-23)
(0.00820105 1.86811e-05 1.21077e-23)
(0.00809242 1.77097e-05 9.71989e-23)
(0.00798957 1.67282e-05 -1.82663e-23)
(0.00789261 1.57484e-05 -4.74584e-26)
(0.0078014 1.47798e-05 2.02481e-22)
(0.0077159 1.38255e-05 2.02532e-22)
(0.00763598 1.2891e-05 -5.58125e-27)
(0.00756152 1.19798e-05 -6.10171e-24)
(0.00749236 1.10938e-05 0)
(0.00742833 1.02336e-05 0)
(0.00736932 9.40162e-06 4.79379e-23)
(0.00731519 8.59383e-06 -4.75327e-23)
(0.00726571 7.81617e-06 -4.70598e-23)
(0.00722078 7.05887e-06 0)
(0.00718025 6.3332e-06 -8.90774e-23)
(0.00714403 5.62308e-06 -2.8485e-24)
(0.00711193 4.93764e-06 -4.47072e-23)
(0.00708385 4.27689e-06 -2.2012e-23)
(0.00705969 3.62544e-06 0)
(0.00703933 2.99279e-06 1.19558e-23)
(0.00702279 2.36541e-06 1.95638e-23)
(0.00701002 1.74505e-06 1.08694e-23)
(0.00700098 1.13216e-06 -1.06568e-23)
(0.00699565 5.18264e-07 0)
(0.00699404 -9.46569e-08 2.99431e-25)
(0.00699612 -7.0012e-07 -4.38636e-24)
(0.00700185 -1.3034e-06 -4.84426e-24)
(0.00701124 -1.90793e-06 -8.8682e-24)
(0.00702433 -2.51962e-06 0)
(0.00704117 -3.13825e-06 0)
(0.00706179 -3.76281e-06 1.62002e-23)
(0.00708624 -4.39842e-06 3.03672e-23)
(0.00711458 -5.04167e-06 3.11973e-23)
(0.00714687 -5.6921e-06 -1.4557e-23)
(0.00718311 -6.3571e-06 2.62627e-23)
(0.00722334 -7.02584e-06 -2.51059e-23)
(0.0072677 -7.71431e-06 0)
(0.0073162 -8.4151e-06 0)
(0.00736897 -9.12151e-06 4.9233e-23)
(0.00742602 -9.84626e-06 -2.47759e-23)
(0.0074874 -1.05709e-05 0)
(0.00755307 -1.13055e-05 -2.34261e-24)
(0.00762315 -1.20424e-05 3.85657e-23)
(0.00769761 -1.27826e-05 3.35643e-23)
(0.00777638 -1.35205e-05 0)
(0.00785947 -1.42547e-05 5.64701e-23)
(0.00794683 -1.49855e-05 3.016e-24)
(0.00803843 -1.57072e-05 -5.69829e-24)
(0.00813419 -1.64165e-05 2.68178e-24)
(0.00823404 -1.71301e-05 0)
(0.00833816 -1.78131e-05 0)
(0.00844601 -1.84676e-05 2.25607e-23)
(0.0085577 -1.91111e-05 3.33543e-25)
(0.00867287 -1.96908e-05 -1.16415e-23)
(0.00879135 -2.02718e-05 -6.69162e-25)
(0.00891299 -2.07428e-05 -3.12103e-24)
(0.00903703 -2.11893e-05 1.62484e-24)
(0.00916362 -2.15282e-05 -6.25211e-24)
(0.00929156 -2.17874e-05 0)
(0.0094208 -2.19408e-05 0)
(0.00955034 -2.19437e-05 0)
(0.00967921 -2.18114e-05 -2.13251e-23)
(0.00980656 -2.15083e-05 -4.79268e-23)
(0.00993087 -2.09952e-05 0)
(0.010051 -2.03025e-05 2.77042e-23)
(0.0101654 -1.93026e-05 -1.11652e-25)
(0.0102715 -1.81066e-05 -5.71906e-23)
(0.0103702 -1.67223e-05 0)
(0.0104579 -1.49847e-05 0)
(0.0105357 -1.32088e-05 4.90958e-23)
(0.0106015 -1.11007e-05 -1.06605e-23)
(0.0106576 -9.03924e-06 1.76769e-23)
(0.0107004 -7.28322e-06 -3.14317e-24)
(0.0107508 -5.88301e-06 7.6891e-27)
(0.0120396 -1.2455e-06 0)
(0.0120424 -3.10891e-07 2.89092e-24)
(0.0120501 4.15206e-06 0)
(0.0120274 8.21278e-06 0)
(0.0119991 1.19335e-05 3.10255e-23)
(0.011947 1.59362e-05 1.21189e-22)
(0.0118782 1.93208e-05 -1.00523e-22)
(0.0117923 2.26161e-05 -1.20025e-22)
(0.0116897 2.54943e-05 0)
(0.0115733 2.79943e-05 0)
(0.0114446 3.01539e-05 -2.96033e-24)
(0.0113056 3.19318e-05 6.21747e-24)
(0.0111582 3.33685e-05 -2.2066e-22)
(0.0110046 3.44207e-05 -2.34928e-22)
(0.0108466 3.51123e-05 0)
(0.0106861 3.54542e-05 8.55938e-24)
(0.0105247 3.55046e-05 -8.54124e-24)
(0.0103637 3.52555e-05 3.12267e-22)
(0.0102048 3.47677e-05 -3.43368e-22)
(0.0100486 3.40746e-05 4.93014e-22)
(0.00989641 3.32001e-05 2.06119e-23)
(0.00974873 3.21787e-05 -9.98745e-24)
(0.00960611 3.10586e-05 1.70396e-22)
(0.00946889 2.98203e-05 -1.07021e-23)
(0.00933774 2.85183e-05 -1.10597e-23)
(0.00921261 2.71651e-05 -1.61513e-25)
(0.00909383 2.57803e-05 1.90189e-22)
(0.00898136 2.43782e-05 1.68887e-22)
(0.00887531 2.29744e-05 1.92208e-22)
(0.00877557 2.15828e-05 -1.81375e-22)
(0.00868206 2.02089e-05 -9.07118e-23)
(0.00859466 1.88604e-05 -9.05808e-23)
(0.00851324 1.75428e-05 -1.74933e-22)
(0.00843764 1.62595e-05 -5.61852e-24)
(0.00836769 1.50114e-05 0)
(0.00830325 1.38023e-05 -1.47848e-26)
(0.00824418 1.26269e-05 0)
(0.00819025 1.14925e-05 0)
(0.00814135 1.03881e-05 -8.61821e-23)
(0.00809731 9.32625e-06 4.25855e-23)
(0.00805804 8.28746e-06 -8.40595e-23)
(0.00802335 7.28194e-06 3.96699e-27)
(0.00799315 6.30909e-06 0)
(0.00796732 5.34994e-06 1.24615e-24)
(0.00794577 4.41645e-06 -1.24263e-24)
(0.00792849 3.49093e-06 -1.93807e-23)
(0.00791543 2.57552e-06 -9.50393e-24)
(0.00790656 1.66936e-06 1.86215e-23)
(0.00790186 7.62752e-07 -4.55557e-24)
(0.00790134 -1.41786e-07 -2.78284e-25)
(0.00790494 -1.0367e-06 4.34615e-24)
(0.00791265 -1.9303e-06 -5.2292e-25)
(0.00792448 -2.82629e-06 8.26249e-24)
(0.00794048 -3.73263e-06 5.08092e-25)
(0.00796071 -4.64886e-06 0)
(0.00798519 -5.57468e-06 -4.52471e-23)
(0.00801398 -6.51565e-06 -2.91728e-23)
(0.00804715 -7.46854e-06 -5.46004e-23)
(0.00808473 -8.43242e-06 -1.72796e-24)
(0.00812677 -9.41718e-06 5.21598e-23)
(0.00817329 -1.04084e-05 2.34698e-23)
(0.00822442 -1.14253e-05 -4.62873e-23)
(0.00828019 -1.24584e-05 -4.55821e-23)
(0.00834068 -1.34994e-05 -4.32914e-23)
(0.00840593 -1.45634e-05 0)
(0.00847595 -1.56281e-05 2.33812e-24)
(0.00855071 -1.67044e-05 -4.52964e-24)
(0.0086303 -1.77817e-05 -9.72572e-23)
(0.00871468 -1.88618e-05 6.07291e-23)
(0.00880377 -1.99363e-05 3.45122e-24)
(0.00889753 -2.10031e-05 -1.09011e-22)
(0.00899591 -2.2061e-05 4.77558e-23)
(0.00909884 -2.31027e-05 0)
(0.00920621 -2.41234e-05 0)
(0.00931792 -2.51412e-05 0)
(0.00943411 -2.61111e-05 0)
(0.00955419 -2.70394e-05 -6.71301e-23)
(0.00967819 -2.79382e-05 1.86274e-24)
(0.00980575 -2.87524e-05 1.05759e-23)
(0.00993661 -2.95441e-05 -1.47226e-23)
(0.0100706 -3.01917e-05 -7.63235e-25)
(0.0102068 -3.07801e-05 -4.10175e-24)
(0.0103454 -3.12193e-05 -7.11702e-25)
(0.010485 -3.15316e-05 4.86251e-25)
(0.0106255 -3.16843e-05 9.4898e-25)
(0.0107658 -3.16212e-05 -9.51324e-25)
(0.0109047 -3.13569e-05 6.59693e-25)
(0.0110414 -3.08453e-05 8.81914e-23)
(0.0111741 -3.00397e-05 -4.80136e-23)
(0.0113016 -2.89659e-05 4.09812e-25)
(0.0114222 -2.74826e-05 -4.10498e-25)
(0.0115331 -2.5717e-05 5.35935e-23)
(0.0116351 -2.36719e-05 0)
(0.011725 -2.11946e-05 -3.72863e-25)
(0.0118036 -1.85961e-05 2.29109e-23)
(0.0118693 -1.56462e-05 -3.94074e-23)
(0.0119242 -1.26767e-05 -1.65093e-23)
(0.0119658 -1.01668e-05 -5.85391e-24)
(0.0120147 -7.87234e-06 0)
(0.0131974 -1.55559e-06 -9.1703e-27)
(0.0131961 1.19172e-07 2.70291e-24)
(0.013199 5.96846e-06 1.31498e-23)
(0.0131718 1.14214e-05 4.11138e-23)
(0.013138 1.64054e-05 5.20454e-25)
(0.0130798 2.1676e-05 -1.51635e-22)
(0.0130038 2.62447e-05 4.01319e-25)
(0.0129099 3.06442e-05 2.24327e-22)
(0.0127982 3.45133e-05 2.61456e-22)
(0.0126715 3.78771e-05 2.4752e-24)
(0.0125319 4.07822e-05 -2.47763e-24)
(0.0123817 4.31833e-05 3.70272e-22)
(0.0122226 4.51304e-05 2.087e-22)
(0.0120571 4.65703e-05 4.96046e-25)
(0.0118872 4.75281e-05 4.69311e-25)
(0.0117147 4.80227e-05 -2.54638e-22)
(0.0115415 4.81167e-05 1.66564e-23)
(0.0113688 4.7817e-05 -5.6069e-22)
(0.0111985 4.71891e-05 2.82869e-22)
(0.0110313 4.62845e-05 -3.11089e-22)
(0.0108683 4.5131e-05 3.75967e-23)
(0.0107104 4.37793e-05 5.16091e-25)
(0.0105579 4.22813e-05 -1.94433e-23)
(0.0104112 4.06298e-05 2.0218e-23)
(0.010271 3.88829e-05 -3.55368e-22)
(0.0101374 3.70648e-05 2.05353e-23)
(0.0100106 3.51989e-05 -1.86572e-22)
(0.00989049 3.33069e-05 1.77201e-22)
(0.00977732 3.14087e-05 -1.57127e-22)
(0.00967092 2.95233e-05 -3.56952e-22)
(0.00957122 2.76589e-05 1.04796e-23)
(0.00947808 2.5826e-05 1.67862e-22)
(0.00939137 2.40322e-05 1.62202e-22)
(0.00931093 2.22825e-05 5.20983e-24)
(0.00923657 2.05785e-05 -5.17248e-24)
(0.00916815 1.89256e-05 -7.7167e-23)
(0.00910552 1.73169e-05 -1.63272e-22)
(0.00904845 1.57615e-05 8.08756e-23)
(0.00899681 1.42469e-05 8.00419e-23)
(0.00895045 1.27864e-05 0)
(0.00890925 1.13581e-05 8.05467e-23)
(0.00887304 9.97238e-06 3.61046e-23)
(0.00884173 8.62775e-06 2.35676e-24)
(0.0088152 7.30211e-06 -3.50956e-24)
(0.00879335 6.00915e-06 1.72635e-26)
(0.00877618 4.72729e-06 1.83792e-26)
(0.00876363 3.45892e-06 1.11561e-24)
(0.00875569 2.2014e-06 -8.67262e-24)
(0.00875232 9.44234e-07 -4.2449e-24)
(0.00875354 -3.08846e-07 0)
(0.00875926 -1.55022e-06 8.10529e-24)
(0.00876951 -2.79241e-06 0)
(0.00878429 -4.03875e-06 9.49232e-25)
(0.00880367 -5.29918e-06 -9.48535e-25)
(0.0088277 -6.57302e-06 0)
(0.00885641 -7.86099e-06 2.8175e-23)
(0.00888985 -9.16869e-06 0)
(0.00892811 -1.04935e-05 7.89887e-23)
(0.00897122 -1.18338e-05 0)
(0.00901921 -1.32018e-05 -4.57998e-23)
(0.00907213 -1.45798e-05 4.38164e-23)
(0.00913008 -1.59894e-05 2.7153e-24)
(0.00919309 -1.74195e-05 3.99449e-23)
(0.00926125 -1.88604e-05 0)
(0.00933454 -2.03277e-05 0)
(0.009413 -2.17968e-05 2.19286e-24)
(0.00949657 -2.32781e-05 -7.02363e-23)
(0.00958533 -2.47582e-05 5.96549e-23)
(0.00967922 -2.62392e-05 -5.50691e-23)
(0.00977812 -2.77096e-05 3.24281e-24)
(0.00988199 -2.91662e-05 4.63324e-23)
(0.00999072 -3.06061e-05 -4.48614e-23)
(0.0101042 -3.20196e-05 -2.35645e-24)
(0.0102224 -3.34005e-05 4.42179e-24)
(0.010345 -3.47661e-05 -2.06467e-24)
(0.0104723 -3.60631e-05 0)
(0.0106035 -3.73012e-05 4.21582e-23)
(0.0107386 -3.84834e-05 1.7619e-24)
(0.0108772 -3.9557e-05 -1.76707e-24)
(0.011019 -4.05721e-05 1.38602e-23)
(0.0111638 -4.14062e-05 6.37851e-25)
(0.0113106 -4.21329e-05 3.15401e-24)
(0.0114594 -4.26614e-05 -4.18962e-25)
(0.0116088 -4.30033e-05 -6.81664e-25)
(0.0117586 -4.31197e-05 5.03871e-23)
(0.0119075 -4.29437e-05 6.53331e-23)
(0.0120544 -4.24864e-05 -1.08147e-24)
(0.0121982 -4.16922e-05 -4.22109e-23)
(0.012337 -4.05073e-05 1.37789e-22)
(0.0124694 -3.89497e-05 9.72801e-23)
(0.0125938 -3.68728e-05 1.00141e-22)
(0.0127073 -3.44105e-05 1.96713e-25)
(0.0128104 -3.15608e-05 0)
(0.0129 -2.82028e-05 0)
(0.0129771 -2.4621e-05 -4.31814e-23)
(0.0130405 -2.06866e-05 1.72128e-25)
(0.0130923 -1.66423e-05 -3.11846e-23)
(0.0131305 -1.32105e-05 5.51414e-24)
(0.0131754 -9.82677e-06 -8.56853e-30)
(0.0142654 -1.63326e-06 1.35119e-27)
(0.0142579 9.96712e-07 -1.02687e-23)
(0.0142544 8.38389e-06 -1.21457e-23)
(0.0142212 1.53921e-05 -7.7811e-23)
(0.0141804 2.1793e-05 1.0923e-22)
(0.0141151 2.84566e-05 7.11039e-23)
(0.014031 3.43491e-05 0)
(0.0139284 3.99663e-05 -1.05368e-22)
(0.0138074 4.49379e-05 -2.45475e-22)
(0.0136707 4.92684e-05 -2.77446e-22)
(0.0135205 5.29941e-05 -7.47411e-24)
(0.0133594 5.6074e-05 4.91463e-24)
(0.0131896 5.85736e-05 3.77287e-22)
(0.0130133 6.04312e-05 -4.00285e-22)
(0.0128327 6.16722e-05 7.44387e-24)
(0.0126497 6.23249e-05 2.16441e-22)
(0.0124662 6.24545e-05 0)
(0.0122836 6.20875e-05 7.75936e-22)
(0.0121036 6.12925e-05 -1.61115e-23)
(0.0119272 6.01415e-05 0)
(0.0117554 5.86665e-05 0)
(0.011589 5.69365e-05 0)
(0.0114285 5.50056e-05 0)
(0.0112742 5.28838e-05 2.98026e-22)
(0.0111269 5.06304e-05 3.02396e-22)
(0.0109865 4.82833e-05 -3.24998e-22)
(0.0108534 4.587e-05 3.27644e-22)
(0.0107274 4.34209e-05 -3.10612e-22)
(0.0106088 4.09603e-05 0)
(0.0104973 3.85124e-05 3.12774e-22)
(0.010393 3.60891e-05 -3.03118e-22)
(0.0102956 3.37037e-05 -1.66097e-22)
(0.010205 3.13664e-05 9.74515e-24)
(0.010121 2.90836e-05 -1.65003e-22)
(0.0100436 2.68582e-05 0)
(0.00997239 2.46968e-05 -4.78518e-24)
(0.00990738 2.25914e-05 1.5704e-22)
(0.00984829 2.05524e-05 -7.54497e-23)
(0.009795 1.85663e-05 -1.49351e-22)
(0.00974734 1.66462e-05 0)
(0.00970519 1.4769e-05 0)
(0.00966839 1.29439e-05 0)
(0.00963685 1.11689e-05 -7.31316e-23)
(0.00961046 9.41886e-06 2.197e-24)
(0.00958911 7.70852e-06 3.4347e-23)
(0.00957281 6.01276e-06 0)
(0.00956149 4.33406e-06 1.02578e-24)
(0.00955515 2.66751e-06 -1.77649e-23)
(0.00955375 1.00277e-06 8.45276e-24)
(0.0095573 -6.55055e-07 -6.06222e-25)
(0.0095657 -2.29973e-06 -7.94558e-24)
(0.009579 -3.94864e-06 9.2617e-25)
(0.00959721 -5.60409e-06 -2.84496e-23)
(0.00962041 -7.27792e-06 -8.90126e-25)
(0.00964863 -8.96926e-06 -2.72933e-23)
(0.00968193 -1.06801e-05 0)
(0.00972035 -1.24157e-05 1.57358e-24)
(0.00976397 -1.41745e-05 -5.10702e-23)
(0.00981283 -1.5954e-05 5.06573e-23)
(0.00986697 -1.77682e-05 -2.92761e-24)
(0.00992643 -1.95967e-05 -4.40464e-23)
(0.0099913 -2.1463e-05 4.47231e-23)
(0.0100616 -2.33537e-05 -2.57663e-24)
(0.0101374 -2.52586e-05 0)
(0.0102187 -2.71924e-05 0)
(0.0103054 -2.91287e-05 7.25488e-23)
(0.0103977 -3.10768e-05 5.61737e-23)
(0.0104953 -3.30202e-05 -1.16145e-22)
(0.0105984 -3.49611e-05 -1.11451e-22)
(0.0107068 -3.68843e-05 3.06732e-24)
(0.0108203 -3.87854e-05 8.8092e-23)
(0.0109389 -4.06588e-05 -8.22805e-23)
(0.0110624 -4.24926e-05 -8.06056e-23)
(0.0111906 -4.42785e-05 4.48136e-24)
(0.0113235 -4.60314e-05 3.34345e-24)
(0.0114609 -4.76906e-05 -5.25088e-23)
(0.0116023 -4.92692e-05 2.22831e-24)
(0.0117476 -5.07574e-05 6.04436e-23)
(0.0118962 -5.21085e-05 0)
(0.0120477 -5.33531e-05 -2.80672e-23)
(0.012202 -5.43757e-05 1.14686e-23)
(0.012358 -5.52292e-05 4.64915e-24)
(0.0125155 -5.58277e-05 -8.52591e-25)
(0.0126731 -5.61665e-05 8.55149e-25)
(0.0128306 -5.62017e-05 -2.5576e-25)
(0.0129864 -5.58566e-05 7.7845e-25)
(0.0131394 -5.51362e-05 -2.20133e-24)
(0.0132883 -5.39763e-05 2.48416e-24)
(0.0134313 -5.23169e-05 -1.50362e-24)
(0.0135668 -5.01653e-05 -9.25061e-23)
(0.013693 -4.73741e-05 -3.4424e-25)
(0.0138068 -4.40765e-05 -9.54938e-23)
(0.0139089 -4.02733e-05 3.56747e-25)
(0.0139964 -3.58922e-05 -3.57079e-25)
(0.0140701 -3.11675e-05 -2.98511e-25)
(0.0141295 -2.61053e-05 3.27467e-25)
(0.0141763 -2.08202e-05 2.94256e-23)
(0.0142094 -1.62878e-05 4.92452e-26)
(0.0142482 -1.16252e-05 0)
(0.0152555 -1.37438e-06 7.02105e-27)
(0.01524 2.44263e-06 2.62887e-26)
(0.0152286 1.1501e-05 -2.3737e-23)
(0.015188 2.02135e-05 3.73494e-23)
(0.015139 2.81714e-05 -1.02918e-22)
(0.0150656 3.63417e-05 -1.35106e-22)
(0.0149727 4.36825e-05 -1.65928e-22)
(0.0148609 5.0616e-05 -4.19291e-25)
(0.0147303 5.67813e-05 4.1945e-25)
(0.0145839 6.21645e-05 2.63332e-22)
(0.0144236 6.67816e-05 2.94557e-22)
(0.0142523 7.05844e-05 -3.25144e-22)
(0.0140724 7.36642e-05 -3.48389e-22)
(0.0138863 7.59571e-05 -1.78368e-23)
(0.0136961 7.74876e-05 2.54293e-23)
(0.013504 7.82941e-05 -4.30407e-22)
(0.0133116 7.84439e-05 -1.38002e-23)
(0.0131205 7.79865e-05 -4.73957e-22)
(0.0129324 7.69923e-05 1.56752e-23)