/*--------------------------------*- C++ -*----------------------------------*\
| =========                 |                                                 |
| \\      /  F ield         | OpenFOAM: The Open Source CFD Toolbox           |
|  \\    /   O peration     | Version:  2306                                  |
|   \\  /    A nd           | Website:  www.openfoam.com                      |
|    \\/     M anipulation  |                                                 |
\*---------------------------------------------------------------------------*/
// * * * * * * * * * * * * * * * * * * * * * * * * * * * * * * * * * * * * * //
FoamFile
{
    version         2;
    format          ascii;
    class           volScalarField;
    location        "6658.70999999028481";
    object          epsilon;
}

dimensions      [ 0 2 -3 0 0 0 0 ];

internalField   nonuniform List<scalar> 
14751
(
5.80067e-06
5.72184e-06
5.66823e-06
5.56876e-06
5.47257e-06
5.3531e-06
5.22603e-06
5.08953e-06
4.94626e-06
4.7988e-06
4.64934e-06
4.49974e-06
4.35136e-06
4.20634e-06
4.06557e-06
3.93011e-06
3.80074e-06
3.67749e-06
3.5611e-06
3.45144e-06
3.34892e-06
3.25318e-06
3.1642e-06
3.08186e-06
3.00604e-06
2.93627e-06
2.87232e-06
2.81388e-06
2.76066e-06
2.71248e-06
2.66906e-06
2.63014e-06
2.59549e-06
2.56487e-06
2.53807e-06
2.51485e-06
2.49498e-06
2.47839e-06
2.4649e-06
2.45432e-06
2.44648e-06
2.44144e-06
2.4391e-06
2.43941e-06
2.44235e-06
2.44777e-06
2.45568e-06
2.46603e-06
2.47878e-06
2.49394e-06
2.51149e-06
2.53149e-06
2.55397e-06
2.57893e-06
2.60642e-06
2.63648e-06
2.66917e-06
2.70457e-06
2.74274e-06
2.78384e-06
2.82799e-06
2.87522e-06
2.92563e-06
2.97915e-06
3.03585e-06
3.09595e-06
3.15953e-06
3.22663e-06
3.29727e-06
3.37163e-06
3.44972e-06
3.53161e-06
3.61732e-06
3.70683e-06
3.80013e-06
3.89723e-06
3.99793e-06
4.10223e-06
4.20978e-06
4.32052e-06
4.43409e-06
4.54982e-06
4.66762e-06
4.78638e-06
4.90564e-06
5.02439e-06
5.14144e-06
5.25549e-06
5.36513e-06
5.46872e-06
5.56461e-06
5.64988e-06
5.72465e-06
5.78393e-06
5.82874e-06
5.85336e-06
5.86261e-06
5.84398e-06
5.83998e-06
4.39105e-06
4.33609e-06
4.2916e-06
4.2201e-06
4.14797e-06
4.0618e-06
3.97019e-06
3.87253e-06
3.77057e-06
3.66597e-06
3.56016e-06
3.45439e-06
3.34964e-06
3.24718e-06
3.14764e-06
3.05172e-06
2.95993e-06
2.87237e-06
2.7895e-06
2.71128e-06
2.63796e-06
2.56937e-06
2.50551e-06
2.44629e-06
2.39165e-06
2.34131e-06
2.29513e-06
2.25291e-06
2.21446e-06
2.17964e-06
2.14826e-06
2.12017e-06
2.09518e-06
2.07315e-06
2.05392e-06
2.03734e-06
2.02326e-06
2.0116e-06
2.00225e-06
1.99509e-06
1.99e-06
1.98698e-06
1.98599e-06
1.98698e-06
1.98991e-06
1.99471e-06
2.00137e-06
2.00986e-06
2.02015e-06
2.03226e-06
2.04615e-06
2.06188e-06
2.07946e-06
2.09889e-06
2.1202e-06
2.14342e-06
2.16859e-06
2.19576e-06
2.22497e-06
2.25631e-06
2.28987e-06
2.32565e-06
2.36371e-06
2.40404e-06
2.44667e-06
2.49173e-06
2.53926e-06
2.58928e-06
2.6418e-06
2.69692e-06
2.75464e-06
2.81496e-06
2.8779e-06
2.94342e-06
3.01148e-06
3.08207e-06
3.15503e-06
3.23031e-06
3.30766e-06
3.38699e-06
3.46801e-06
3.55025e-06
3.63356e-06
3.71721e-06
3.8008e-06
3.88362e-06
3.96483e-06
4.04353e-06
4.11877e-06
4.18941e-06
4.25431e-06
4.31164e-06
4.36112e-06
4.39994e-06
4.42822e-06
4.44291e-06
4.44598e-06
4.43188e-06
4.42219e-06
3.48771e-06
3.44502e-06
3.40434e-06
3.3468e-06
3.2864e-06
3.21723e-06
3.14403e-06
3.06693e-06
2.98722e-06
2.90608e-06
2.82451e-06
2.74343e-06
2.66355e-06
2.58566e-06
2.51023e-06
2.43769e-06
2.36837e-06
2.30238e-06
2.23997e-06
2.18112e-06
2.12597e-06
2.07441e-06
2.02643e-06
1.98196e-06
1.94093e-06
1.90316e-06
1.86854e-06
1.83692e-06
1.80818e-06
1.78219e-06
1.75882e-06
1.73795e-06
1.71944e-06
1.7032e-06
1.6891e-06
1.67703e-06
1.6669e-06
1.65863e-06
1.65213e-06
1.64734e-06
1.64416e-06
1.6426e-06
1.64259e-06
1.64412e-06
1.64715e-06
1.65163e-06
1.65755e-06
1.6649e-06
1.67365e-06
1.68381e-06
1.69538e-06
1.70838e-06
1.72281e-06
1.73869e-06
1.75603e-06
1.77487e-06
1.79522e-06
1.81712e-06
1.84059e-06
1.86572e-06
1.89253e-06
1.92106e-06
1.95133e-06
1.98334e-06
2.01714e-06
2.05279e-06
2.09031e-06
2.12972e-06
2.17105e-06
2.21433e-06
2.25956e-06
2.30675e-06
2.35589e-06
2.40694e-06
2.45987e-06
2.51465e-06
2.57116e-06
2.62933e-06
2.68899e-06
2.75001e-06
2.81217e-06
2.87514e-06
2.93871e-06
3.00237e-06
3.06578e-06
3.12836e-06
3.18952e-06
3.24856e-06
3.30474e-06
3.35725e-06
3.4052e-06
3.44738e-06
3.48328e-06
3.5112e-06
3.53078e-06
3.54031e-06
3.54028e-06
3.52841e-06
3.51496e-06
2.858e-06
2.82202e-06
2.78351e-06
2.73395e-06
2.68064e-06
2.62179e-06
2.55994e-06
2.49565e-06
2.42991e-06
2.36361e-06
2.29752e-06
2.2323e-06
2.1685e-06
2.10663e-06
2.047e-06
1.9899e-06
1.93553e-06
1.88395e-06
1.8353e-06
1.78956e-06
1.74677e-06
1.70686e-06
1.6698e-06
1.63552e-06
1.60394e-06
1.57494e-06
1.54842e-06
1.52427e-06
1.50237e-06
1.48265e-06
1.46498e-06
1.44927e-06
1.43543e-06
1.42336e-06
1.41298e-06
1.40422e-06
1.39699e-06
1.39123e-06
1.38688e-06
1.38389e-06
1.38219e-06
1.38178e-06
1.38261e-06
1.38466e-06
1.3879e-06
1.39231e-06
1.39787e-06
1.40457e-06
1.41241e-06
1.42138e-06
1.43149e-06
1.44275e-06
1.45517e-06
1.46875e-06
1.48352e-06
1.49949e-06
1.51668e-06
1.53512e-06
1.55484e-06
1.57587e-06
1.59825e-06
1.622e-06
1.64714e-06
1.67369e-06
1.70166e-06
1.7311e-06
1.76203e-06
1.79447e-06
1.82842e-06
1.86391e-06
1.90093e-06
1.93948e-06
1.97955e-06
2.02111e-06
2.06412e-06
2.10854e-06
2.15427e-06
2.20125e-06
2.24933e-06
2.29838e-06
2.34821e-06
2.39856e-06
2.44922e-06
2.49981e-06
2.54998e-06
2.59932e-06
2.64732e-06
2.69343e-06
2.73707e-06
2.7776e-06
2.81433e-06
2.84641e-06
2.87324e-06
2.89373e-06
2.90736e-06
2.91309e-06
2.91072e-06
2.89937e-06
2.88344e-06
2.39139e-06
2.35941e-06
2.32272e-06
2.27848e-06
2.23032e-06
2.17863e-06
2.1249e-06
2.06976e-06
2.01398e-06
1.95827e-06
1.90321e-06
1.8493e-06
1.79698e-06
1.74655e-06
1.69825e-06
1.65224e-06
1.60862e-06
1.56745e-06
1.52875e-06
1.49251e-06
1.45871e-06
1.4273e-06
1.39822e-06
1.37141e-06
1.34678e-06
1.32425e-06
1.30371e-06
1.28509e-06
1.26829e-06
1.25323e-06
1.23982e-06
1.228e-06
1.21767e-06
1.20876e-06
1.20123e-06
1.19499e-06
1.18999e-06
1.18619e-06
1.18353e-06
1.18196e-06
1.18146e-06
1.182e-06
1.18356e-06
1.18611e-06
1.18964e-06
1.19412e-06
1.19953e-06
1.20589e-06
1.21318e-06
1.22142e-06
1.23059e-06
1.24072e-06
1.2518e-06
1.26384e-06
1.27687e-06
1.29089e-06
1.30593e-06
1.32199e-06
1.33911e-06
1.35731e-06
1.37661e-06
1.39704e-06
1.41861e-06
1.44132e-06
1.46521e-06
1.49029e-06
1.51659e-06
1.5441e-06
1.57283e-06
1.6028e-06
1.634e-06
1.66641e-06
1.70003e-06
1.73481e-06
1.77073e-06
1.80773e-06
1.84573e-06
1.88465e-06
1.92438e-06
1.96478e-06
2.00568e-06
2.04688e-06
2.08815e-06
2.12918e-06
2.16969e-06
2.2093e-06
2.24763e-06
2.2842e-06
2.31855e-06
2.35017e-06
2.3785e-06
2.40294e-06
2.42293e-06
2.43776e-06
2.44681e-06
2.4494e-06
2.44505e-06
2.43336e-06
2.41591e-06
2.03006e-06
2.00082e-06
1.96601e-06
1.92584e-06
1.88204e-06
1.83597e-06
1.78863e-06
1.74063e-06
1.69266e-06
1.64518e-06
1.59864e-06
1.55344e-06
1.50989e-06
1.46821e-06
1.42854e-06
1.39096e-06
1.35553e-06
1.32227e-06
1.29114e-06
1.26212e-06
1.23516e-06
1.21021e-06
1.18722e-06
1.1661e-06
1.14678e-06
1.12919e-06
1.11324e-06
1.09886e-06
1.08597e-06
1.0745e-06
1.06439e-06
1.05556e-06
1.04795e-06
1.04152e-06
1.0362e-06
1.03194e-06
1.02871e-06
1.02646e-06
1.02514e-06
1.02474e-06
1.02522e-06
1.02655e-06
1.02873e-06
1.03174e-06
1.03555e-06
1.04015e-06
1.04554e-06
1.05171e-06
1.05868e-06
1.06643e-06
1.07497e-06
1.08432e-06
1.09446e-06
1.10542e-06
1.11721e-06
1.12983e-06
1.1433e-06
1.15764e-06
1.17286e-06
1.18898e-06
1.20601e-06
1.22399e-06
1.2429e-06
1.26277e-06
1.28361e-06
1.30543e-06
1.32823e-06
1.35203e-06
1.37683e-06
1.40262e-06
1.42939e-06
1.45713e-06
1.48581e-06
1.51541e-06
1.54587e-06
1.57715e-06
1.60918e-06
1.64187e-06
1.67511e-06
1.70878e-06
1.74272e-06
1.77675e-06
1.81066e-06
1.8442e-06
1.87709e-06
1.90904e-06
1.93971e-06
1.96873e-06
1.9957e-06
2.02022e-06
2.0419e-06
2.0603e-06
2.07488e-06
2.08515e-06
2.09053e-06
2.09047e-06
2.08444e-06
2.07218e-06
2.05398e-06
1.74116e-06
1.71412e-06
1.68138e-06
1.64472e-06
1.60489e-06
1.56363e-06
1.52172e-06
1.47967e-06
1.4381e-06
1.39739e-06
1.35781e-06
1.31964e-06
1.28314e-06
1.24843e-06
1.2156e-06
1.1847e-06
1.15573e-06
1.12868e-06
1.1035e-06
1.08014e-06
1.05854e-06
1.03865e-06
1.02041e-06
1.00374e-06
9.88582e-07
9.74857e-07
9.62497e-07
9.51438e-07
9.41616e-07
9.32968e-07
9.25438e-07
9.18971e-07
9.13518e-07
9.09031e-07
9.05469e-07
9.0279e-07
9.00961e-07
8.99949e-07
8.99722e-07
9.00254e-07
9.01525e-07
9.03517e-07
9.06216e-07
9.09607e-07
9.13674e-07
9.18406e-07
9.23806e-07
9.29877e-07
9.36618e-07
9.4403e-07
9.52115e-07
9.6088e-07
9.70329e-07
9.8047e-07
9.91311e-07
1.00286e-06
1.01513e-06
1.02813e-06
1.04188e-06
1.05638e-06
1.07165e-06
1.0877e-06
1.10454e-06
1.12216e-06
1.14059e-06
1.15982e-06
1.17985e-06
1.20069e-06
1.22233e-06
1.24477e-06
1.26798e-06
1.29195e-06
1.31664e-06
1.34204e-06
1.36808e-06
1.39471e-06
1.42187e-06
1.44946e-06
1.47739e-06
1.50554e-06
1.53377e-06
1.5619e-06
1.58975e-06
1.61711e-06
1.64373e-06
1.66935e-06
1.69371e-06
1.7165e-06
1.73743e-06
1.75621e-06
1.7725e-06
1.78597e-06
1.79619e-06
1.80274e-06
1.80515e-06
1.80292e-06
1.79558e-06
1.78284e-06
1.76447e-06
1.50473e-06
1.4797e-06
1.44922e-06
1.41579e-06
1.37972e-06
1.34279e-06
1.30568e-06
1.26881e-06
1.23271e-06
1.19769e-06
1.16396e-06
1.13167e-06
1.10098e-06
1.07198e-06
1.04473e-06
1.01925e-06
9.95483e-07
9.73428e-07
9.53008e-07
9.34175e-07
9.16856e-07
9.00997e-07
8.86535e-07
8.73408e-07
8.61547e-07
8.50894e-07
8.41384e-07
8.32962e-07
8.25574e-07
8.19166e-07
8.13691e-07
8.09103e-07
8.05361e-07
8.02428e-07
8.00268e-07
7.98849e-07
7.98145e-07
7.98126e-07
7.9877e-07
8.00054e-07
8.01964e-07
8.04483e-07
8.07602e-07
8.11305e-07
8.15583e-07
8.20426e-07
8.25846e-07
8.3184e-07
8.38408e-07
8.4555e-07
8.53271e-07
8.61573e-07
8.7046e-07
8.79939e-07
8.90015e-07
9.00694e-07
9.11986e-07
9.23895e-07
9.36433e-07
9.49606e-07
9.63421e-07
9.77884e-07
9.92997e-07
1.00876e-06
1.02518e-06
1.04225e-06
1.05997e-06
1.07833e-06
1.09733e-06
1.11695e-06
1.13716e-06
1.15795e-06
1.17929e-06
1.20113e-06
1.22342e-06
1.24611e-06
1.26914e-06
1.29241e-06
1.31583e-06
1.33929e-06
1.36266e-06
1.38579e-06
1.40849e-06
1.43061e-06
1.45191e-06
1.47219e-06
1.49126e-06
1.50889e-06
1.52485e-06
1.53888e-06
1.55074e-06
1.5602e-06
1.56687e-06
1.57044e-06
1.57049e-06
1.56658e-06
1.55831e-06
1.54534e-06
1.52727e-06
1.30791e-06
1.28486e-06
1.25678e-06
1.22643e-06
1.19396e-06
1.16103e-06
1.12825e-06
1.09598e-06
1.06467e-06
1.03455e-06
1.00578e-06
9.78469e-07
9.52669e-07
9.28438e-07
9.05805e-07
8.84765e-07
8.65264e-07
8.47279e-07
8.30726e-07
8.15555e-07
8.01689e-07
7.89076e-07
7.77654e-07
7.67368e-07
7.58156e-07
7.49964e-07
7.42736e-07
7.36426e-07
7.30985e-07
7.26368e-07
7.22537e-07
7.19452e-07
7.1708e-07
7.1539e-07
7.14352e-07
7.1394e-07
7.14134e-07
7.14909e-07
7.16246e-07
7.18129e-07
7.20545e-07
7.2348e-07
7.26925e-07
7.30869e-07
7.35301e-07
7.40227e-07
7.45649e-07
7.51566e-07
7.57976e-07
7.64881e-07
7.72282e-07
7.80183e-07
7.88585e-07
7.97493e-07
8.0691e-07
8.1684e-07
8.27288e-07
8.38257e-07
8.49754e-07
8.6178e-07
8.74338e-07
8.8743e-07
9.01054e-07
9.15206e-07
9.29885e-07
9.45084e-07
9.60794e-07
9.77003e-07
9.93699e-07
1.01086e-06
1.02846e-06
1.04648e-06
1.06488e-06
1.08362e-06
1.10264e-06
1.1219e-06
1.14132e-06
1.16083e-06
1.18033e-06
1.19971e-06
1.21886e-06
1.23765e-06
1.25591e-06
1.2735e-06
1.29026e-06
1.30604e-06
1.32067e-06
1.33399e-06
1.34581e-06
1.35593e-06
1.36418e-06
1.37038e-06
1.37422e-06
1.37543e-06
1.37369e-06
1.36857e-06
1.35975e-06
1.34685e-06
1.32945e-06
1.14202e-06
1.12096e-06
1.09537e-06
1.068e-06
1.03898e-06
1.00975e-06
9.80934e-07
9.52781e-07
9.25692e-07
8.9984e-07
8.75331e-07
8.52231e-07
8.3059e-07
8.1037e-07
7.9159e-07
7.7424e-07
7.58257e-07
7.43614e-07
7.30225e-07
7.18039e-07
7.06981e-07
6.97001e-07
6.88041e-07
6.80052e-07
6.72976e-07
6.66768e-07
6.61378e-07
6.56766e-07
6.5289e-07
6.49713e-07
6.47201e-07
6.45322e-07
6.44048e-07
6.43352e-07
6.4321e-07
6.43603e-07
6.4451e-07
6.45914e-07
6.47799e-07
6.50151e-07
6.52958e-07
6.5621e-07
6.59899e-07
6.64014e-07
6.68552e-07
6.7352e-07
6.78917e-07
6.84739e-07
6.90987e-07
6.97661e-07
7.04761e-07
7.12289e-07
7.20246e-07
7.28633e-07
7.37452e-07
7.46705e-07
7.56392e-07
7.66515e-07
7.77074e-07
7.8807e-07
7.995e-07
8.11361e-07
8.23648e-07
8.36355e-07
8.49473e-07
8.62992e-07
8.76899e-07
8.91177e-07
9.0581e-07
9.20772e-07
9.36039e-07
9.51579e-07
9.67354e-07
9.83324e-07
9.99438e-07
1.01564e-06
1.03186e-06
1.04803e-06
1.06406e-06
1.07986e-06
1.0953e-06
1.11029e-06
1.12468e-06
1.13838e-06
1.15128e-06
1.16325e-06
1.17416e-06
1.18389e-06
1.19228e-06
1.19922e-06
1.20455e-06
1.20816e-06
1.2098e-06
1.20923e-06
1.2062e-06
1.2003e-06
1.1913e-06
1.17877e-06
1.16232e-06
1.00092e-06
9.8189e-07
9.58807e-07
9.34313e-07
9.08553e-07
8.82775e-07
8.5756e-07
8.33102e-07
8.09745e-07
7.87622e-07
7.66796e-07
7.47301e-07
7.29164e-07
7.12341e-07
6.96796e-07
6.82522e-07
6.69457e-07
6.57572e-07
6.46784e-07
6.37042e-07
6.28278e-07
6.20443e-07
6.13485e-07
6.07359e-07
6.02014e-07
5.9741e-07
5.93506e-07
5.90264e-07
5.87649e-07
5.8563e-07
5.84178e-07
5.83265e-07
5.82869e-07
5.82967e-07
5.83539e-07
5.84568e-07
5.86039e-07
5.87936e-07
5.90245e-07
5.92955e-07
5.96056e-07
5.9954e-07
6.03397e-07
6.0762e-07
6.12216e-07
6.17184e-07
6.22521e-07
6.28225e-07
6.34294e-07
6.40729e-07
6.47529e-07
6.54693e-07
6.6222e-07
6.70111e-07
6.78364e-07
6.86978e-07
6.95953e-07
7.05285e-07
7.14972e-07
7.2501e-07
7.35394e-07
7.46117e-07
7.5717e-07
7.68543e-07
7.80223e-07
7.92197e-07
8.04447e-07
8.16954e-07
8.29697e-07
8.4265e-07
8.55784e-07
8.69067e-07
8.82461e-07
8.95924e-07
9.09408e-07
9.22856e-07
9.36207e-07
9.49395e-07
9.62338e-07
9.74952e-07
9.87129e-07
9.98786e-07
1.00984e-06
1.02022e-06
1.02985e-06
1.03861e-06
1.04642e-06
1.05319e-06
1.0588e-06
1.06318e-06
1.06622e-06
1.06783e-06
1.06782e-06
1.06598e-06
1.06211e-06
1.05583e-06
1.04696e-06
1.03507e-06
1.01976e-06
8.80151e-07
8.63128e-07
8.42524e-07
8.20777e-07
7.98083e-07
7.75487e-07
7.5354e-07
7.32387e-07
7.12326e-07
6.93456e-07
6.75813e-07
6.59405e-07
6.44238e-07
6.30275e-07
6.17455e-07
6.05753e-07
5.95113e-07
5.8551e-07
5.76865e-07
5.69132e-07
5.62246e-07
5.56163e-07
5.50836e-07
5.46224e-07
5.42285e-07
5.38981e-07
5.36277e-07
5.34141e-07
5.32542e-07
5.31453e-07
5.30851e-07
5.30712e-07
5.31015e-07
5.31743e-07
5.32879e-07
5.34407e-07
5.36315e-07
5.38589e-07
5.41219e-07
5.44193e-07
5.47504e-07
5.51142e-07
5.551e-07
5.59381e-07
5.63985e-07
5.68909e-07
5.7415e-07
5.79706e-07
5.85574e-07
5.91753e-07
5.98241e-07
6.05036e-07
6.12135e-07
6.19536e-07
6.27237e-07
6.35232e-07
6.43519e-07
6.52092e-07
6.60945e-07
6.70071e-07
6.79462e-07
6.89107e-07
6.98994e-07
7.0911e-07
7.19439e-07
7.29964e-07
7.40666e-07
7.51522e-07
7.62509e-07
7.736e-07
7.84765e-07
7.95971e-07
8.0718e-07
8.18354e-07
8.29445e-07
8.40401e-07
8.51168e-07
8.61683e-07
8.71875e-07
8.81669e-07
8.90967e-07
8.99748e-07
9.07953e-07
9.1553e-07
9.22403e-07
9.28506e-07
9.33774e-07
9.3815e-07
9.41559e-07
9.43947e-07
9.45231e-07
9.45367e-07
9.44189e-07
9.41522e-07
9.37201e-07
9.30875e-07
9.22413e-07
9.11382e-07
8.9737e-07
7.76296e-07
7.61239e-07
7.43035e-07
7.2388e-07
7.0403e-07
6.84349e-07
6.65345e-07
6.47135e-07
6.29973e-07
6.13936e-07
5.99037e-07
5.85269e-07
5.72624e-07
5.6106e-07
5.50534e-07
5.40984e-07
5.32365e-07
5.24652e-07
5.17776e-07
5.11693e-07
5.06347e-07
5.01696e-07
4.977e-07
4.94321e-07
4.91521e-07
4.8927e-07
4.87536e-07
4.86291e-07
4.85508e-07
4.85166e-07
4.85241e-07
4.85716e-07
4.86573e-07
4.87795e-07
4.89369e-07
4.91281e-07
4.9352e-07
4.96076e-07
4.98936e-07
5.02093e-07
5.05539e-07
5.09264e-07
5.1327e-07
5.17557e-07
5.2212e-07
5.26959e-07
5.32067e-07
5.37443e-07
5.43082e-07
5.48983e-07
5.55141e-07
5.61554e-07
5.68216e-07
5.75124e-07
5.82272e-07
5.89654e-07
5.97264e-07
6.05093e-07
6.13133e-07
6.21374e-07
6.29804e-07
6.38411e-07
6.4718e-07
6.56095e-07
6.65138e-07
6.74289e-07
6.83526e-07
6.92828e-07
7.02168e-07
7.1152e-07
7.20854e-07
7.30139e-07
7.39337e-07
7.48414e-07
7.57327e-07
7.66029e-07
7.7447e-07
7.82598e-07
7.90351e-07
7.97664e-07
8.04474e-07
8.10812e-07
8.16612e-07
8.21841e-07
8.26446e-07
8.30386e-07
8.33621e-07
8.36119e-07
8.37831e-07
8.38724e-07
8.3874e-07
8.37854e-07
8.3593e-07
8.32814e-07
8.28372e-07
8.22282e-07
8.14442e-07
8.04423e-07
7.91814e-07
6.86698e-07
6.73527e-07
6.57602e-07
6.40864e-07
6.23621e-07
6.06581e-07
5.9021e-07
5.74603e-07
5.5998e-07
5.46398e-07
5.33858e-07
5.22344e-07
5.11837e-07
5.02295e-07
4.93676e-07
4.85933e-07
4.78996e-07
4.7285e-07
4.67434e-07
4.62709e-07
4.58625e-07
4.55145e-07
4.52232e-07
4.49855e-07
4.4798e-07
4.46579e-07
4.45626e-07
4.45096e-07
4.44966e-07
4.45216e-07
4.45828e-07
4.46786e-07
4.48073e-07
4.49676e-07
4.51583e-07
4.53782e-07
4.56263e-07
4.59015e-07
4.6203e-07
4.65299e-07
4.68814e-07
4.72572e-07
4.76575e-07
4.80817e-07
4.85296e-07
4.90007e-07
4.94946e-07
5.00108e-07
5.0549e-07
5.11086e-07
5.16893e-07
5.22905e-07
5.29115e-07
5.35518e-07
5.42106e-07
5.48871e-07
5.55804e-07
5.62895e-07
5.70132e-07
5.77504e-07
5.84996e-07
5.92593e-07
6.00279e-07
6.08036e-07
6.15844e-07
6.23682e-07
6.31528e-07
6.39359e-07
6.4715e-07
6.54875e-07
6.62505e-07
6.70012e-07
6.77362e-07
6.84525e-07
6.91463e-07
6.98135e-07
7.04502e-07
7.10517e-07
7.16129e-07
7.21292e-07
7.26012e-07
7.30299e-07
7.34106e-07
7.37418e-07
7.40201e-07
7.42434e-07
7.44096e-07
7.45176e-07
7.45642e-07
7.45478e-07
7.44642e-07
7.43121e-07
7.40804e-07
7.37552e-07
7.33253e-07
7.27617e-07
7.20554e-07
7.11646e-07
7.00488e-07
6.09218e-07
5.97823e-07
5.84025e-07
5.69509e-07
5.54627e-07
5.39959e-07
5.25924e-07
5.12605e-07
5.00191e-07
4.8873e-07
4.7821e-07
4.68613e-07
4.59914e-07
4.52073e-07
4.45048e-07
4.38803e-07
4.3327e-07
4.28422e-07
4.2421e-07
4.20601e-07
4.1755e-07
4.15025e-07
4.12994e-07
4.11428e-07
4.10299e-07
4.09582e-07
4.09254e-07
4.09294e-07
4.0968e-07
4.10397e-07
4.11428e-07
4.12758e-07
4.14373e-07
4.16261e-07
4.18412e-07
4.20814e-07
4.23459e-07
4.26337e-07
4.29438e-07
4.32755e-07
4.36286e-07
4.40028e-07
4.43978e-07
4.4813e-07
4.52481e-07
4.57026e-07
4.61758e-07
4.66674e-07
4.71767e-07
4.77031e-07
4.82462e-07
4.88051e-07
4.93791e-07
4.99674e-07
5.0569e-07
5.11829e-07
5.18081e-07
5.24433e-07
5.30872e-07
5.37384e-07
5.43954e-07
5.50564e-07
5.57197e-07
5.63833e-07
5.70453e-07
5.77036e-07
5.83559e-07
5.9e-07
5.96335e-07
6.02541e-07
6.08592e-07
6.14463e-07
6.20127e-07
6.25556e-07
6.30721e-07
6.35589e-07
6.40127e-07
6.44301e-07
6.48065e-07
6.51436e-07
6.54421e-07
6.57029e-07
6.59231e-07
6.61025e-07
6.62396e-07
6.63334e-07
6.63836e-07
6.63903e-07
6.63516e-07
6.62669e-07
6.61331e-07
6.59498e-07
6.57072e-07
6.53931e-07
6.49979e-07
6.4495e-07
6.38763e-07
6.31015e-07
6.21306e-07
5.42094e-07
5.32344e-07
5.20499e-07
5.08002e-07
4.95235e-07
4.82675e-07
4.70695e-07
4.59374e-07
4.48874e-07
4.39233e-07
4.30438e-07
4.22466e-07
4.15292e-07
4.08879e-07
4.03185e-07
3.98179e-07
3.93809e-07
3.90036e-07
3.86816e-07
3.84122e-07
3.81915e-07
3.80166e-07
3.78848e-07
3.77937e-07
3.77406e-07
3.77235e-07
3.77403e-07
3.77891e-07
3.7868e-07
3.79757e-07
3.81106e-07
3.82715e-07
3.84571e-07
3.86663e-07
3.88981e-07
3.91514e-07
3.94255e-07
3.97194e-07
4.00322e-07
4.03637e-07
4.07136e-07
4.10814e-07
4.14665e-07
4.18685e-07
4.22868e-07
4.27207e-07
4.31698e-07
4.36334e-07
4.41108e-07
4.46013e-07
4.51041e-07
4.56185e-07
4.61434e-07
4.66779e-07
4.7221e-07
4.77714e-07
4.83278e-07
4.8889e-07
4.94534e-07
5.00195e-07
5.05856e-07
5.11501e-07
5.1711e-07
5.22664e-07
5.28145e-07
5.3353e-07
5.388e-07
5.43934e-07
5.48911e-07
5.5371e-07
5.58311e-07
5.62694e-07
5.66835e-07
5.70716e-07
5.74314e-07
5.77604e-07
5.80563e-07
5.83168e-07
5.85394e-07
5.87306e-07
5.88893e-07
5.90173e-07
5.9113e-07
5.91775e-07
5.92102e-07
5.92115e-07
5.91818e-07
5.91222e-07
5.90314e-07
5.89096e-07
5.87543e-07
5.85652e-07
5.83339e-07
5.80493e-07
5.77028e-07
5.72705e-07
5.6744e-07
5.60852e-07
5.52547e-07
4.83848e-07
4.75601e-07
4.65522e-07
4.54837e-07
4.43945e-07
4.33242e-07
4.23058e-07
4.13469e-07
4.04617e-07
3.96534e-07
3.89204e-07
3.82606e-07
3.76714e-07
3.71494e-07
3.66909e-07
3.6293e-07
3.5951e-07
3.56625e-07
3.54221e-07
3.52274e-07
3.50753e-07
3.49633e-07
3.48889e-07
3.48501e-07
3.48445e-07
3.48704e-07
3.49259e-07
3.50093e-07
3.5119e-07
3.52537e-07
3.5412e-07
3.55928e-07
3.57949e-07
3.60174e-07
3.62591e-07
3.65193e-07
3.67971e-07
3.70914e-07
3.74022e-07
3.77289e-07
3.8071e-07
3.84278e-07
3.87989e-07
3.91836e-07
3.95812e-07
3.99911e-07
4.04127e-07
4.08451e-07
4.12876e-07
4.17394e-07
4.21996e-07
4.26672e-07
4.31411e-07
4.36202e-07
4.41034e-07
4.45892e-07
4.50764e-07
4.55635e-07
4.60489e-07
4.6531e-07
4.70082e-07
4.74786e-07
4.79405e-07
4.8392e-07
4.88314e-07
4.92567e-07
4.96661e-07
5.00578e-07
5.04303e-07
5.07817e-07
5.11106e-07
5.14154e-07
5.16947e-07
5.19472e-07
5.21715e-07
5.23659e-07
5.2529e-07
5.2659e-07
5.27601e-07
5.28362e-07
5.28869e-07
5.29145e-07
5.29188e-07
5.29013e-07
5.28625e-07
5.28031e-07
5.27245e-07
5.26277e-07
5.25123e-07
5.23782e-07
5.22235e-07
5.2048e-07
5.1844e-07
5.16015e-07
5.13126e-07
5.09554e-07
5.05215e-07
4.99748e-07
4.9277e-07
4.3323e-07
4.26336e-07
4.17833e-07
4.08757e-07
3.9951e-07
3.90427e-07
3.81801e-07
3.73706e-07
3.66265e-07
3.59507e-07
3.53418e-07
3.47976e-07
3.43158e-07
3.38933e-07
3.35268e-07
3.32137e-07
3.29498e-07
3.2733e-07
3.25594e-07
3.24256e-07
3.2329e-07
3.22673e-07
3.22387e-07
3.22411e-07
3.22727e-07
3.23319e-07
3.24168e-07
3.25262e-07
3.26585e-07
3.28124e-07
3.29868e-07
3.31807e-07
3.33928e-07
3.36223e-07
3.38682e-07
3.41296e-07
3.44058e-07
3.46964e-07
3.50007e-07
3.53182e-07
3.56481e-07
3.59899e-07
3.6343e-07
3.67066e-07
3.70801e-07
3.74627e-07
3.78535e-07
3.82518e-07
3.86567e-07
3.90673e-07
3.94825e-07
3.99013e-07
4.03225e-07
4.07449e-07
4.11671e-07
4.15879e-07
4.20058e-07
4.24191e-07
4.28265e-07
4.32263e-07
4.36169e-07
4.39966e-07
4.43636e-07
4.47164e-07
4.50534e-07
4.53729e-07
4.56735e-07
4.59538e-07
4.62126e-07
4.64487e-07
4.66612e-07
4.68492e-07
4.70118e-07
4.71487e-07
4.72591e-07
4.73423e-07
4.73978e-07
4.74258e-07
4.7434e-07
4.74239e-07
4.73958e-07
4.73526e-07
4.72948e-07
4.72242e-07
4.71418e-07
4.70488e-07
4.69464e-07
4.6836e-07
4.67171e-07
4.65897e-07
4.64521e-07
4.63035e-07
4.61374e-07
4.59445e-07
4.57171e-07
4.54356e-07
4.50909e-07
4.46495e-07
4.40743e-07
3.89164e-07
3.83476e-07
3.76362e-07
3.68699e-07
3.60884e-07
3.53205e-07
3.45921e-07
3.39105e-07
3.32866e-07
3.27232e-07
3.22187e-07
3.17714e-07
3.13791e-07
3.10392e-07
3.07487e-07
3.05053e-07
3.03052e-07
3.01467e-07
3.00262e-07
2.99413e-07
2.98891e-07
2.98674e-07
2.98747e-07
2.99092e-07
2.99692e-07
3.00533e-07
3.01599e-07
3.02878e-07
3.04356e-07
3.06022e-07
3.07864e-07
3.09873e-07
3.12037e-07
3.14348e-07
3.16796e-07
3.19377e-07
3.22083e-07
3.24908e-07
3.27844e-07
3.30885e-07
3.34025e-07
3.37256e-07
3.40571e-07
3.43963e-07
3.47424e-07
3.50945e-07
3.54519e-07
3.58134e-07
3.61783e-07
3.65455e-07
3.69138e-07
3.72822e-07
3.76494e-07
3.80141e-07
3.8375e-07
3.87307e-07
3.90797e-07
3.94206e-07
3.97518e-07
4.00718e-07
4.03791e-07
4.06723e-07
4.09497e-07
4.12102e-07
4.14522e-07
4.16747e-07
4.18765e-07
4.20568e-07
4.22148e-07
4.23499e-07
4.24619e-07
4.25504e-07
4.26155e-07
4.26572e-07
4.26756e-07
4.26708e-07
4.26427e-07
4.2597e-07
4.25384e-07
4.24683e-07
4.23876e-07
4.22995e-07
4.22048e-07
4.21055e-07
4.20026e-07
4.18974e-07
4.17912e-07
4.16849e-07
4.15782e-07
4.14709e-07
4.13612e-07
4.12482e-07
4.11258e-07
4.09854e-07
4.08198e-07
4.06112e-07
4.035e-07
4.0005e-07
3.95408e-07
3.50729e-07
3.46102e-07
3.40199e-07
3.33764e-07
3.27185e-07
3.20714e-07
3.14578e-07
3.08853e-07
3.03633e-07
2.98945e-07
2.94776e-07
2.91112e-07
2.87932e-07
2.85214e-07
2.82933e-07
2.81066e-07
2.79584e-07
2.78467e-07
2.77686e-07
2.77219e-07
2.77041e-07
2.77136e-07
2.77485e-07
2.78071e-07
2.7888e-07
2.799e-07
2.81116e-07
2.82517e-07
2.8409e-07
2.85824e-07
2.87709e-07
2.89734e-07
2.91892e-07
2.94174e-07
2.96572e-07
2.9908e-07
3.01689e-07
3.04392e-07
3.07183e-07
3.10055e-07
3.12999e-07
3.16009e-07
3.19077e-07
3.22195e-07
3.25353e-07
3.28544e-07
3.31758e-07
3.34984e-07
3.38213e-07
3.41434e-07
3.44635e-07
3.47804e-07
3.5093e-07
3.53998e-07
3.56997e-07
3.5991e-07
3.62727e-07
3.65431e-07
3.68009e-07
3.70448e-07
3.72734e-07
3.74855e-07
3.768e-07
3.78556e-07
3.80116e-07
3.8147e-07
3.82614e-07
3.83544e-07
3.84256e-07
3.84752e-07
3.85033e-07
3.85105e-07
3.84971e-07
3.84641e-07
3.84122e-07
3.8342e-07
3.82549e-07
3.81596e-07
3.80574e-07
3.79504e-07
3.78398e-07
3.77286e-07
3.76177e-07
3.75091e-07
3.74038e-07
3.73028e-07
3.72072e-07
3.71178e-07
3.70339e-07
3.69551e-07
3.68796e-07
3.68063e-07
3.67295e-07
3.66415e-07
3.65351e-07
3.63941e-07
3.62086e-07
3.595e-07
3.55845e-07
3.17128e-07
3.13427e-07
3.08566e-07
3.03192e-07
2.97672e-07
2.92231e-07
2.87073e-07
2.82271e-07
2.7791e-07
2.74015e-07
2.70577e-07
2.67583e-07
2.65016e-07
2.62857e-07
2.61083e-07
2.59676e-07
2.58608e-07
2.57864e-07
2.57415e-07
2.57245e-07
2.5733e-07
2.57654e-07
2.58203e-07
2.58961e-07
2.59916e-07
2.61053e-07
2.62361e-07
2.63828e-07
2.65443e-07
2.67196e-07
2.69077e-07
2.71078e-07
2.73189e-07
2.75403e-07
2.77711e-07
2.80107e-07
2.82582e-07
2.8513e-07
2.87742e-07
2.90411e-07
2.9313e-07
2.9589e-07
2.98683e-07
3.01501e-07
3.04333e-07
3.07172e-07
3.10007e-07
3.12827e-07
3.15622e-07
3.18382e-07
3.21094e-07
3.23746e-07
3.26327e-07
3.28823e-07
3.31223e-07
3.33512e-07
3.35679e-07
3.37711e-07
3.39596e-07
3.41323e-07
3.4288e-07
3.4426e-07
3.45452e-07
3.46451e-07
3.47251e-07
3.47849e-07
3.48243e-07
3.48436e-07
3.4843e-07
3.4823e-07
3.47845e-07
3.47284e-07
3.46558e-07
3.45679e-07
3.4466e-07
3.43511e-07
3.42284e-07
3.41039e-07
3.39784e-07
3.38539e-07
3.37319e-07
3.3615e-07
3.35041e-07
3.34009e-07
3.33063e-07
3.3221e-07
3.31458e-07
3.30811e-07
3.30261e-07
3.29802e-07
3.29415e-07
3.29087e-07
3.28767e-07
3.28381e-07
3.27861e-07
3.27062e-07
3.25879e-07
3.24051e-07
3.21258e-07
2.87676e-07
2.84771e-07
2.80802e-07
2.76334e-07
2.71714e-07
2.67149e-07
2.62818e-07
2.58793e-07
2.55152e-07
2.51918e-07
2.49086e-07
2.46643e-07
2.44578e-07
2.42872e-07
2.41507e-07
2.40466e-07
2.39726e-07
2.39271e-07
2.39079e-07
2.39131e-07
2.39409e-07
2.39899e-07
2.40585e-07
2.41456e-07
2.42498e-07
2.43699e-07
2.45048e-07
2.46535e-07
2.48147e-07
2.49877e-07
2.51715e-07
2.53651e-07
2.55678e-07
2.57787e-07
2.59971e-07
2.62221e-07
2.64531e-07
2.66892e-07
2.69296e-07
2.71736e-07
2.74203e-07
2.76688e-07
2.79184e-07
2.81681e-07
2.8417e-07
2.86641e-07
2.89084e-07
2.91488e-07
2.93844e-07
2.96139e-07
2.98364e-07
3.00505e-07
3.02553e-07
3.04494e-07
3.06317e-07
3.08012e-07
3.09567e-07
3.10972e-07
3.12217e-07
3.13294e-07
3.14194e-07
3.14913e-07
3.15446e-07
3.15789e-07
3.15942e-07
3.15907e-07
3.15686e-07
3.15286e-07
3.14714e-07
3.13981e-07
3.13099e-07
3.12081e-07
3.10943e-07
3.09701e-07
3.08371e-07
3.06969e-07
3.05575e-07
3.0421e-07
3.02885e-07
3.0162e-07
3.00429e-07
2.99333e-07
2.98341e-07
2.97465e-07
2.96713e-07
2.96088e-07
2.95596e-07
2.95236e-07
2.95001e-07
2.94882e-07
2.9486e-07
2.9492e-07
2.95016e-07
2.9508e-07
2.95045e-07
2.9478e-07
2.94179e-07
2.93004e-07
2.90954e-07
2.6178e-07
2.59554e-07
2.56339e-07
2.52641e-07
2.48783e-07
2.44955e-07
2.4132e-07
2.37946e-07
2.34904e-07
2.32217e-07
2.29882e-07
2.27891e-07
2.26231e-07
2.24889e-07
2.23848e-07
2.23095e-07
2.22607e-07
2.22372e-07
2.22369e-07
2.22583e-07
2.22995e-07
2.23593e-07
2.24364e-07
2.25297e-07
2.26379e-07
2.27599e-07
2.28946e-07
2.3041e-07
2.31981e-07
2.3365e-07
2.35408e-07
2.37245e-07
2.39155e-07
2.41128e-07
2.43157e-07
2.45234e-07
2.47351e-07
2.49499e-07
2.51671e-07
2.53859e-07
2.56054e-07
2.58246e-07
2.60429e-07
2.62592e-07
2.64725e-07
2.6682e-07
2.68866e-07
2.70853e-07
2.72772e-07
2.7461e-07
2.76358e-07
2.78005e-07
2.79541e-07
2.80956e-07
2.82239e-07
2.83381e-07
2.84374e-07
2.85209e-07
2.8588e-07
2.86381e-07
2.86709e-07
2.86861e-07
2.86836e-07
2.86636e-07
2.86263e-07
2.85724e-07
2.85026e-07
2.84178e-07
2.83192e-07
2.82082e-07
2.80864e-07
2.79554e-07
2.7817e-07
2.76729e-07
2.75248e-07
2.73769e-07
2.72351e-07
2.71001e-07
2.69732e-07
2.68561e-07
2.67499e-07
2.66565e-07
2.65765e-07
2.65107e-07
2.64597e-07
2.64236e-07
2.64025e-07
2.63963e-07
2.64041e-07
2.64248e-07
2.64567e-07
2.64981e-07
2.65448e-07
2.65906e-07
2.66291e-07
2.66482e-07
2.66375e-07
2.65753e-07
2.64333e-07
2.38933e-07
2.37277e-07
2.34697e-07
2.31647e-07
2.28429e-07
2.2522e-07
2.22165e-07
2.19332e-07
2.16786e-07
2.14548e-07
2.12618e-07
2.1099e-07
2.09655e-07
2.086e-07
2.07812e-07
2.07278e-07
2.0698e-07
2.06905e-07
2.07035e-07
2.07356e-07
2.07852e-07
2.08511e-07
2.09322e-07
2.10273e-07
2.11353e-07
2.12553e-07
2.13861e-07
2.15267e-07
2.16763e-07
2.18339e-07
2.19986e-07
2.21696e-07
2.23461e-07
2.25272e-07
2.27121e-07
2.29001e-07
2.30903e-07
2.32819e-07
2.34741e-07
2.3666e-07
2.38568e-07
2.40456e-07
2.42316e-07
2.44138e-07
2.45913e-07
2.47632e-07
2.49285e-07
2.50862e-07
2.52355e-07
2.53753e-07
2.55047e-07
2.56227e-07
2.57286e-07
2.58213e-07
2.59003e-07
2.59647e-07
2.60139e-07
2.60474e-07
2.60649e-07
2.60661e-07
2.6051e-07
2.60197e-07
2.59725e-07
2.59098e-07
2.58324e-07
2.57411e-07
2.56371e-07
2.55215e-07
2.53959e-07
2.52618e-07
2.5121e-07
2.49752e-07
2.48263e-07
2.46762e-07
2.45265e-07
2.43841e-07
2.42507e-07
2.4127e-07
2.40144e-07
2.39143e-07
2.38275e-07
2.37555e-07
2.36986e-07
2.36575e-07
2.36323e-07
2.36232e-07
2.363e-07
2.36523e-07
2.36892e-07
2.37396e-07
2.38018e-07
2.38741e-07
2.39528e-07
2.4032e-07
2.41057e-07
2.41629e-07
2.41933e-07
2.4177e-07
2.40875e-07
2.18701e-07
2.17517e-07
2.15467e-07
2.12959e-07
2.10275e-07
2.0758e-07
2.05007e-07
2.0262e-07
2.00479e-07
1.98607e-07
1.97003e-07
1.95665e-07
1.94584e-07
1.93751e-07
1.93154e-07
1.92782e-07
1.92619e-07
1.92653e-07
1.92868e-07
1.93251e-07
1.93788e-07
1.94467e-07
1.95279e-07
1.96212e-07
1.97257e-07
1.98403e-07
1.9964e-07
2.0096e-07
2.02352e-07
2.03808e-07
2.05319e-07
2.06878e-07
2.08475e-07
2.10103e-07
2.11753e-07
2.13418e-07
2.15089e-07
2.16759e-07
2.18418e-07
2.2006e-07
2.21674e-07
2.23253e-07
2.24789e-07
2.26272e-07
2.27693e-07
2.29045e-07
2.30318e-07
2.31503e-07
2.32593e-07
2.33578e-07
2.34451e-07
2.35203e-07
2.35829e-07
2.36322e-07
2.36676e-07
2.36886e-07
2.3695e-07
2.36865e-07
2.3663e-07
2.36247e-07
2.35717e-07
2.35045e-07
2.34238e-07
2.33302e-07
2.32248e-07
2.31087e-07
2.29832e-07
2.28498e-07
2.27099e-07
2.25654e-07
2.24181e-07