/*--------------------------------*- C++ -*----------------------------------*\
| =========                 |                                                 |
| \\      /  F ield         | OpenFOAM: The Open Source CFD Toolbox           |
|  \\    /   O peration     | Version:  2306                                  |
|   \\  /    A nd           | Website:  www.openfoam.com                      |
|    \\/     M anipulation  |                                                 |
\*---------------------------------------------------------------------------*/
// * * * * * * * * * * * * * * * * * * * * * * * * * * * * * * * * * * * * * //
FoamFile
{
    version         2;
    format          ascii;
    class           volScalarField;
    location        "6658.70999999028481";
    object          k;
}

dimensions      [ 0 2 -2 0 0 0 0 ];

internalField   nonuniform List<scalar> 
14751
(
3.10221e-05
3.07131e-05
3.04801e-05
3.01576e-05
2.98505e-05
2.95066e-05
2.91512e-05
2.8784e-05
2.84085e-05
2.803e-05
2.76533e-05
2.7282e-05
2.69186e-05
2.65681e-05
2.62324e-05
2.59134e-05
2.5613e-05
2.53303e-05
2.50671e-05
2.48231e-05
2.45993e-05
2.43945e-05
2.42087e-05
2.40417e-05
2.38933e-05
2.37621e-05
2.36471e-05
2.35475e-05
2.34626e-05
2.33921e-05
2.33354e-05
2.32917e-05
2.32604e-05
2.32409e-05
2.32325e-05
2.32345e-05
2.32461e-05
2.32671e-05
2.32972e-05
2.33354e-05
2.3381e-05
2.34344e-05
2.34957e-05
2.35645e-05
2.36408e-05
2.37238e-05
2.38133e-05
2.39093e-05
2.40114e-05
2.41195e-05
2.42335e-05
2.43533e-05
2.4479e-05
2.46102e-05
2.47469e-05
2.4889e-05
2.50364e-05
2.5189e-05
2.53469e-05
2.55104e-05
2.56799e-05
2.58549e-05
2.60355e-05
2.62205e-05
2.64097e-05
2.66039e-05
2.68029e-05
2.70064e-05
2.72139e-05
2.74257e-05
2.76415e-05
2.78611e-05
2.80841e-05
2.831e-05
2.85383e-05
2.87687e-05
2.90003e-05
2.92325e-05
2.9464e-05
2.96942e-05
2.99222e-05
3.01457e-05
3.03644e-05
3.05755e-05
3.07779e-05
3.09697e-05
3.11484e-05
3.13111e-05
3.14554e-05
3.15782e-05
3.16775e-05
3.17471e-05
3.17884e-05
3.17914e-05
3.17574e-05
3.16759e-05
3.15545e-05
3.13651e-05
3.12136e-05
2.97502e-05
2.94873e-05
2.92648e-05
2.89875e-05
2.87138e-05
2.8418e-05
2.81122e-05
2.77987e-05
2.74798e-05
2.71596e-05
2.68415e-05
2.65287e-05
2.62232e-05
2.59285e-05
2.56463e-05
2.53776e-05
2.51242e-05
2.48856e-05
2.4663e-05
2.44563e-05
2.42661e-05
2.4092e-05
2.39337e-05
2.37912e-05
2.36643e-05
2.35521e-05
2.34539e-05
2.33691e-05
2.32971e-05
2.32377e-05
2.31903e-05
2.31543e-05
2.31292e-05
2.31145e-05
2.31098e-05
2.31143e-05
2.31276e-05
2.31494e-05
2.31792e-05
2.32166e-05
2.32608e-05
2.33122e-05
2.33706e-05
2.34357e-05
2.35074e-05
2.35852e-05
2.3669e-05
2.37586e-05
2.38537e-05
2.39544e-05
2.40603e-05
2.41715e-05
2.4288e-05
2.44094e-05
2.45358e-05
2.46669e-05
2.48027e-05
2.49431e-05
2.50881e-05
2.52378e-05
2.53925e-05
2.55518e-05
2.57156e-05
2.58832e-05
2.60545e-05
2.62296e-05
2.64085e-05
2.65909e-05
2.67763e-05
2.69648e-05
2.71562e-05
2.735e-05
2.75459e-05
2.77433e-05
2.79419e-05
2.81411e-05
2.83401e-05
2.85384e-05
2.87348e-05
2.89285e-05
2.91187e-05
2.93035e-05
2.94824e-05
2.96531e-05
2.98147e-05
2.99654e-05
3.01032e-05
3.02259e-05
3.03315e-05
3.04177e-05
3.04826e-05
3.05219e-05
3.05356e-05
3.05179e-05
3.04678e-05
3.03804e-05
3.02567e-05
3.00863e-05
2.9928e-05
2.90105e-05
2.87674e-05
2.85432e-05
2.82865e-05
2.80268e-05
2.77555e-05
2.74758e-05
2.71921e-05
2.6906e-05
2.66205e-05
2.63386e-05
2.6063e-05
2.57955e-05
2.55383e-05
2.52929e-05
2.506e-05
2.48408e-05
2.46351e-05
2.44436e-05
2.42662e-05
2.41033e-05
2.39546e-05
2.38199e-05
2.3699e-05
2.35917e-05
2.34974e-05
2.34156e-05
2.33457e-05
2.32873e-05
2.32401e-05
2.32035e-05
2.31771e-05
2.31605e-05
2.31533e-05
2.3155e-05
2.31651e-05
2.31832e-05
2.32091e-05
2.32423e-05
2.32824e-05
2.3329e-05
2.33821e-05
2.34416e-05
2.35072e-05
2.35788e-05
2.3656e-05
2.37386e-05
2.38265e-05
2.39197e-05
2.40179e-05
2.4121e-05
2.4229e-05
2.43417e-05
2.44591e-05
2.45809e-05
2.4707e-05
2.48374e-05
2.4972e-05
2.51107e-05
2.52535e-05
2.54005e-05
2.55515e-05
2.57062e-05
2.58643e-05
2.60254e-05
2.61898e-05
2.63571e-05
2.6527e-05
2.66993e-05
2.68737e-05
2.705e-05
2.72277e-05
2.74064e-05
2.75856e-05
2.77649e-05
2.79435e-05
2.81209e-05
2.82962e-05
2.84686e-05
2.8637e-05
2.88008e-05
2.89582e-05
2.91084e-05
2.92499e-05
2.93812e-05
2.95012e-05
2.96079e-05
2.96996e-05
2.97746e-05
2.98309e-05
2.98671e-05
2.98799e-05
2.98684e-05
2.98297e-05
2.97611e-05
2.96614e-05
2.95279e-05
2.93596e-05
2.91876e-05
2.84705e-05
2.82343e-05
2.80046e-05
2.77575e-05
2.75045e-05
2.72478e-05
2.69849e-05
2.67215e-05
2.64584e-05
2.61982e-05
2.59435e-05
2.56964e-05
2.54586e-05
2.52316e-05
2.50165e-05
2.48136e-05
2.46239e-05
2.44471e-05
2.42834e-05
2.41329e-05
2.39955e-05
2.38711e-05
2.37594e-05
2.36602e-05
2.35731e-05
2.34978e-05
2.34336e-05
2.33803e-05
2.33373e-05
2.33042e-05
2.32808e-05
2.32665e-05
2.3261e-05
2.3264e-05
2.32749e-05
2.32936e-05
2.33195e-05
2.33524e-05
2.33921e-05
2.34381e-05
2.34901e-05
2.3548e-05
2.36117e-05
2.3681e-05
2.37557e-05
2.38356e-05
2.39204e-05
2.401e-05
2.41045e-05
2.42036e-05
2.43072e-05
2.44153e-05
2.45277e-05
2.46443e-05
2.47649e-05
2.48895e-05
2.50179e-05
2.515e-05
2.52857e-05
2.54249e-05
2.55676e-05
2.57137e-05
2.58628e-05
2.60147e-05
2.61691e-05
2.63259e-05
2.64848e-05
2.66456e-05
2.68078e-05
2.69712e-05
2.71355e-05
2.73001e-05
2.74646e-05
2.76285e-05
2.77912e-05
2.79521e-05
2.81105e-05
2.82655e-05
2.84164e-05
2.8562e-05
2.87017e-05
2.88338e-05
2.89575e-05
2.90714e-05
2.91744e-05
2.9265e-05
2.93421e-05
2.94037e-05
2.94487e-05
2.94755e-05
2.94829e-05
2.94685e-05
2.94311e-05
2.93691e-05
2.92796e-05
2.91633e-05
2.90157e-05
2.88407e-05
2.86532e-05
2.79931e-05
2.77581e-05
2.75233e-05
2.72809e-05
2.70326e-05
2.67866e-05
2.65372e-05
2.62905e-05
2.60467e-05
2.58082e-05
2.55769e-05
2.53548e-05
2.51433e-05
2.49433e-05
2.47556e-05
2.45803e-05
2.4418e-05
2.42683e-05
2.41312e-05
2.40065e-05
2.38941e-05
2.37938e-05
2.37051e-05
2.36279e-05
2.35617e-05
2.3506e-05
2.34606e-05
2.34249e-05
2.33986e-05
2.33812e-05
2.33725e-05
2.3372e-05
2.33793e-05
2.33942e-05
2.34164e-05
2.34455e-05
2.34811e-05
2.35231e-05
2.35712e-05
2.3625e-05
2.36843e-05
2.3749e-05
2.38189e-05
2.38937e-05
2.39735e-05
2.40579e-05
2.41467e-05
2.42399e-05
2.43375e-05
2.44393e-05
2.45452e-05
2.46551e-05
2.47688e-05
2.48863e-05
2.50073e-05
2.51318e-05
2.52596e-05
2.53905e-05
2.55245e-05
2.56613e-05
2.58009e-05
2.59432e-05
2.60878e-05
2.62344e-05
2.63828e-05
2.65327e-05
2.66839e-05
2.6836e-05
2.69886e-05
2.71412e-05
2.72937e-05
2.74453e-05
2.75957e-05
2.77442e-05
2.78903e-05
2.80332e-05
2.81724e-05
2.83069e-05
2.84359e-05
2.85583e-05
2.86735e-05
2.87799e-05
2.88768e-05
2.89629e-05
2.90371e-05
2.90983e-05
2.91454e-05
2.91769e-05
2.91919e-05
2.91891e-05
2.91678e-05
2.9126e-05
2.90627e-05
2.89772e-05
2.88668e-05
2.87328e-05
2.85704e-05
2.83852e-05
2.8184e-05
2.75234e-05
2.72882e-05
2.70505e-05
2.68118e-05
2.65687e-05
2.63322e-05
2.60956e-05
2.58648e-05
2.56396e-05
2.54216e-05
2.52126e-05
2.50141e-05
2.48273e-05
2.46528e-05
2.44912e-05
2.43422e-05
2.42061e-05
2.40825e-05
2.3971e-05
2.38714e-05
2.37834e-05
2.37067e-05
2.36408e-05
2.35854e-05
2.354e-05
2.35044e-05
2.3478e-05
2.34604e-05
2.34512e-05
2.34501e-05
2.34567e-05
2.34706e-05
2.34916e-05
2.35194e-05
2.35536e-05
2.3594e-05
2.36403e-05
2.36923e-05
2.37497e-05
2.38123e-05
2.38798e-05
2.39521e-05
2.4029e-05
2.41103e-05
2.4196e-05
2.42857e-05
2.43794e-05
2.4477e-05
2.45784e-05
2.46836e-05
2.47923e-05
2.49046e-05
2.50202e-05
2.51389e-05
2.52607e-05
2.53854e-05
2.55128e-05
2.56427e-05
2.57749e-05
2.59094e-05
2.60458e-05
2.61841e-05
2.6324e-05
2.6465e-05
2.66069e-05
2.67494e-05
2.68922e-05
2.70348e-05
2.71769e-05
2.7318e-05
2.74576e-05
2.75953e-05
2.77305e-05
2.78625e-05
2.79908e-05
2.81148e-05
2.82336e-05
2.83464e-05
2.84525e-05
2.85507e-05
2.86406e-05
2.87205e-05
2.87899e-05
2.88476e-05
2.88927e-05
2.89243e-05
2.89415e-05
2.89432e-05
2.89287e-05
2.88971e-05
2.8848e-05
2.87802e-05
2.86926e-05
2.85854e-05
2.84558e-05
2.83054e-05
2.81295e-05
2.79342e-05
2.77225e-05
2.70417e-05
2.68075e-05
2.65699e-05
2.6336e-05
2.60998e-05
2.58736e-05
2.56504e-05
2.54357e-05
2.52293e-05
2.50321e-05
2.48453e-05
2.467e-05
2.45074e-05
2.43576e-05
2.42211e-05
2.40974e-05
2.39866e-05
2.3888e-05
2.38012e-05
2.37257e-05
2.36613e-05
2.36074e-05
2.35636e-05
2.35294e-05
2.35045e-05
2.34883e-05
2.34805e-05
2.34807e-05
2.34885e-05
2.35035e-05
2.35253e-05
2.35537e-05
2.35884e-05
2.36291e-05
2.36755e-05
2.37274e-05
2.37845e-05
2.38467e-05
2.39136e-05
2.39851e-05
2.40609e-05
2.41409e-05
2.4225e-05
2.4313e-05
2.44046e-05
2.44998e-05
2.45983e-05
2.47003e-05
2.48056e-05
2.49141e-05
2.50256e-05
2.51401e-05
2.52573e-05
2.53771e-05
2.54993e-05
2.56237e-05
2.57502e-05
2.58785e-05
2.60084e-05
2.61398e-05
2.62723e-05
2.64058e-05
2.65399e-05
2.66744e-05
2.68087e-05
2.69427e-05
2.70758e-05
2.72078e-05
2.73381e-05
2.74662e-05
2.75916e-05
2.77139e-05
2.78325e-05
2.79467e-05
2.80559e-05
2.81594e-05
2.82566e-05
2.83466e-05
2.84287e-05
2.85018e-05
2.85655e-05
2.86183e-05
2.86598e-05
2.8689e-05
2.87051e-05
2.87074e-05
2.86954e-05
2.86682e-05
2.86255e-05
2.8567e-05
2.84924e-05
2.8401e-05
2.82921e-05
2.81658e-05
2.80198e-05
2.78556e-05
2.76691e-05
2.74658e-05
2.72475e-05
2.6544e-05
2.63132e-05
2.60792e-05
2.58522e-05
2.56254e-05
2.5411e-05
2.52026e-05
2.50049e-05
2.48178e-05
2.46418e-05
2.44775e-05
2.43255e-05
2.41866e-05
2.40609e-05
2.39487e-05
2.38494e-05
2.37627e-05
2.36881e-05
2.36248e-05
2.35724e-05
2.35303e-05
2.34981e-05
2.34753e-05
2.34614e-05
2.34559e-05
2.34584e-05
2.34684e-05
2.34856e-05
2.35097e-05
2.35401e-05
2.35766e-05
2.36189e-05
2.36668e-05
2.37199e-05
2.37781e-05
2.38411e-05
2.39087e-05
2.39806e-05
2.40567e-05
2.41367e-05
2.42206e-05
2.4308e-05
2.43988e-05
2.4493e-05
2.45902e-05
2.46904e-05
2.47934e-05
2.48993e-05
2.5008e-05
2.51193e-05
2.5233e-05
2.5349e-05
2.54672e-05
2.55873e-05
2.57091e-05
2.58325e-05
2.59572e-05
2.60829e-05
2.62095e-05
2.63366e-05
2.6464e-05
2.65916e-05
2.67187e-05
2.68452e-05
2.69707e-05
2.70947e-05
2.72167e-05
2.73365e-05
2.74534e-05
2.75671e-05
2.76768e-05
2.77822e-05
2.78827e-05
2.79776e-05
2.80663e-05
2.81482e-05
2.82227e-05
2.82888e-05
2.83461e-05
2.83935e-05
2.84305e-05
2.84561e-05
2.84697e-05
2.84706e-05
2.84583e-05
2.84323e-05
2.83924e-05
2.83382e-05
2.82698e-05
2.81871e-05
2.809e-05
2.79784e-05
2.78514e-05
2.77095e-05
2.75508e-05
2.73762e-05
2.71825e-05
2.69745e-05
2.67538e-05
2.6033e-05
2.58088e-05
2.5582e-05
2.53645e-05
2.51497e-05
2.49489e-05
2.47569e-05
2.45774e-05
2.44101e-05
2.42555e-05
2.41138e-05
2.39851e-05
2.38696e-05
2.37673e-05
2.36785e-05
2.36025e-05
2.35388e-05
2.34867e-05
2.34456e-05
2.34149e-05
2.33938e-05
2.3382e-05
2.33788e-05
2.33838e-05
2.33965e-05
2.34164e-05
2.34432e-05
2.34763e-05
2.35155e-05
2.35604e-05
2.36107e-05
2.36661e-05
2.37263e-05
2.37911e-05
2.38603e-05
2.39336e-05
2.40109e-05
2.40919e-05
2.41765e-05
2.42644e-05
2.43555e-05
2.44496e-05
2.45465e-05
2.46461e-05
2.47482e-05
2.48526e-05
2.49594e-05
2.50685e-05
2.51797e-05
2.5293e-05
2.5408e-05
2.55247e-05
2.56429e-05
2.57623e-05
2.58827e-05
2.60038e-05
2.61255e-05
2.62475e-05
2.63694e-05
2.6491e-05
2.6612e-05
2.67321e-05
2.68509e-05
2.69681e-05
2.70831e-05
2.71955e-05
2.7305e-05
2.7411e-05
2.75131e-05
2.76106e-05
2.77033e-05
2.77903e-05
2.78714e-05
2.79457e-05
2.80128e-05
2.8072e-05
2.81228e-05
2.81645e-05
2.81964e-05
2.82177e-05
2.8228e-05
2.82265e-05
2.82128e-05
2.81863e-05
2.81468e-05
2.80942e-05
2.80288e-05
2.79504e-05
2.78592e-05
2.77556e-05
2.76397e-05
2.75115e-05
2.73704e-05
2.72168e-05
2.70492e-05
2.68682e-05
2.66713e-05
2.64625e-05
2.62433e-05
2.55143e-05
2.52999e-05
2.50837e-05
2.48785e-05
2.4678e-05
2.44929e-05
2.43186e-05
2.41582e-05
2.40114e-05
2.38783e-05
2.37589e-05
2.3653e-05
2.35604e-05
2.34808e-05
2.34142e-05
2.33602e-05
2.33181e-05
2.32873e-05
2.32668e-05
2.32561e-05
2.32544e-05
2.32614e-05
2.32764e-05
2.32988e-05
2.33282e-05
2.33642e-05
2.34063e-05
2.34541e-05
2.35073e-05
2.35654e-05
2.36283e-05
2.36956e-05
2.37671e-05
2.38426e-05
2.39218e-05
2.40045e-05
2.40905e-05
2.41797e-05
2.42718e-05
2.43667e-05
2.44641e-05
2.4564e-05
2.46661e-05
2.47702e-05
2.48762e-05
2.4984e-05
2.50936e-05
2.52048e-05
2.53176e-05
2.54318e-05
2.55471e-05
2.56633e-05
2.57803e-05
2.58977e-05
2.60155e-05
2.61332e-05
2.62505e-05
2.63673e-05
2.64832e-05
2.65979e-05
2.6711e-05
2.68222e-05
2.69311e-05
2.70372e-05
2.71402e-05
2.72396e-05
2.73349e-05
2.74257e-05
2.75114e-05
2.75915e-05
2.76656e-05
2.77331e-05
2.77934e-05
2.78462e-05
2.78907e-05
2.79266e-05
2.79532e-05
2.797e-05
2.79764e-05
2.79718e-05
2.7956e-05
2.79281e-05
2.7888e-05
2.78356e-05
2.7771e-05
2.76945e-05
2.76065e-05
2.75071e-05
2.73968e-05
2.7276e-05
2.71452e-05
2.70044e-05
2.68534e-05
2.66924e-05
2.65201e-05
2.63369e-05
2.61408e-05
2.59351e-05
2.57215e-05
2.49944e-05
2.47929e-05
2.45903e-05
2.43998e-05
2.42159e-05
2.40479e-05
2.38926e-05
2.37519e-05
2.36259e-05
2.35141e-05
2.34164e-05
2.33325e-05
2.32619e-05
2.32039e-05
2.31584e-05
2.3125e-05
2.3103e-05
2.30917e-05
2.30902e-05
2.30978e-05
2.3114e-05
2.31381e-05
2.31695e-05
2.32078e-05
2.32524e-05
2.33029e-05
2.33589e-05
2.34199e-05
2.34856e-05
2.35557e-05
2.363e-05
2.3708e-05
2.37896e-05
2.38745e-05
2.39626e-05
2.40536e-05
2.41473e-05
2.42435e-05
2.43421e-05
2.44429e-05
2.45456e-05
2.46501e-05
2.47562e-05
2.48637e-05
2.49726e-05
2.50827e-05
2.5194e-05
2.53063e-05
2.54195e-05
2.55334e-05
2.56477e-05
2.57622e-05
2.58767e-05
2.59909e-05
2.61046e-05
2.62174e-05
2.63291e-05
2.64393e-05
2.65476e-05
2.66538e-05
2.67575e-05
2.68582e-05
2.69557e-05
2.70493e-05
2.71388e-05
2.72236e-05
2.73032e-05
2.73773e-05
2.74453e-05
2.75066e-05
2.7561e-05
2.76078e-05
2.76467e-05
2.76771e-05
2.76985e-05
2.77106e-05
2.77129e-05
2.77049e-05
2.76863e-05
2.76565e-05
2.76153e-05
2.75623e-05
2.74977e-05
2.74218e-05
2.73349e-05
2.72377e-05
2.71304e-05
2.70137e-05
2.68882e-05
2.67544e-05
2.66129e-05
2.6464e-05
2.63073e-05
2.61432e-05
2.59704e-05
2.5789e-05
2.55979e-05
2.53992e-05
2.51946e-05
2.44799e-05
2.42939e-05
2.41075e-05
2.39336e-05
2.37678e-05
2.36183e-05
2.34825e-05
2.3362e-05
2.32565e-05
2.31655e-05
2.30888e-05
2.30258e-05
2.29758e-05
2.29382e-05
2.29124e-05
2.2898e-05
2.28944e-05
2.29009e-05
2.29167e-05
2.2941e-05
2.29731e-05
2.30126e-05
2.30589e-05
2.31113e-05
2.31695e-05
2.32329e-05
2.33012e-05
2.3374e-05
2.34509e-05
2.35316e-05
2.36157e-05
2.37032e-05
2.37935e-05
2.38867e-05
2.39824e-05
2.40805e-05
2.41806e-05
2.42828e-05
2.43867e-05
2.44921e-05
2.45989e-05
2.47069e-05
2.48158e-05
2.49256e-05
2.50362e-05
2.51474e-05
2.52592e-05
2.53713e-05
2.54837e-05
2.5596e-05
2.57079e-05
2.58194e-05
2.59301e-05
2.60396e-05
2.61478e-05
2.62543e-05
2.63588e-05
2.64608e-05
2.65601e-05
2.66563e-05
2.6749e-05
2.68378e-05
2.69222e-05
2.70019e-05
2.70764e-05
2.71452e-05
2.72078e-05
2.72639e-05
2.7313e-05
2.73546e-05
2.73883e-05
2.74138e-05
2.74305e-05
2.74381e-05
2.74363e-05
2.74247e-05
2.7403e-05
2.73709e-05
2.73281e-05
2.72742e-05
2.72092e-05
2.71332e-05
2.70467e-05
2.69503e-05
2.68446e-05
2.67301e-05
2.66075e-05
2.64776e-05
2.63411e-05
2.61987e-05
2.60509e-05
2.58981e-05
2.57402e-05
2.5577e-05
2.54079e-05
2.52324e-05
2.50499e-05
2.48618e-05
2.46694e-05
2.39764e-05
2.38081e-05
2.36397e-05
2.3484e-05
2.33374e-05
2.32071e-05
2.30911e-05
2.29905e-05
2.2905e-05
2.28341e-05
2.27772e-05
2.27337e-05
2.27029e-05
2.26841e-05
2.26765e-05
2.26795e-05
2.26926e-05
2.27151e-05
2.27463e-05
2.27854e-05
2.28318e-05
2.2885e-05
2.29443e-05
2.30092e-05
2.30793e-05
2.31541e-05
2.32332e-05
2.33162e-05
2.34028e-05
2.34926e-05
2.35853e-05
2.36808e-05
2.37786e-05
2.38787e-05
2.39807e-05
2.40846e-05
2.41899e-05
2.42967e-05
2.44046e-05
2.45135e-05
2.46231e-05
2.47333e-05
2.48438e-05
2.49546e-05
2.50657e-05
2.51768e-05
2.52877e-05
2.53984e-05
2.55085e-05
2.56178e-05
2.57261e-05
2.58331e-05
2.59385e-05
2.6042e-05
2.61432e-05
2.62419e-05
2.63376e-05
2.643e-05
2.65187e-05
2.66034e-05
2.66836e-05
2.6759e-05
2.6829e-05
2.68934e-05
2.69515e-05
2.70031e-05
2.70476e-05
2.70847e-05
2.7114e-05
2.7135e-05
2.71475e-05
2.71511e-05
2.71455e-05
2.71305e-05
2.71057e-05
2.7071e-05
2.70261e-05
2.6971e-05
2.69055e-05
2.68294e-05
2.67428e-05
2.66467e-05
2.65416e-05
2.64283e-05
2.63074e-05
2.61797e-05
2.6046e-05
2.59072e-05
2.57641e-05
2.56174e-05
2.54677e-05
2.53155e-05
2.51603e-05
2.50023e-05
2.48406e-05
2.46747e-05
2.45041e-05
2.43297e-05
2.41523e-05
2.34889e-05
2.33397e-05
2.31906e-05
2.3054e-05
2.29272e-05
2.28163e-05
2.27198e-05
2.26385e-05
2.25722e-05
2.25202e-05
2.24818e-05
2.24564e-05
2.24431e-05
2.24412e-05
2.245e-05
2.24688e-05
2.24968e-05
2.25336e-05
2.25784e-05
2.26306e-05
2.26895e-05
2.27545e-05
2.28251e-05
2.29009e-05
2.29813e-05
2.30658e-05
2.31542e-05
2.32459e-05
2.33406e-05
2.34381e-05
2.3538e-05
2.364e-05
2.3744e-05
2.38496e-05
2.39566e-05
2.40649e-05
2.41741e-05
2.42842e-05
2.43948e-05
2.45058e-05
2.46169e-05
2.47279e-05
2.48388e-05
2.49494e-05
2.50596e-05
2.51692e-05
2.5278e-05
2.53858e-05
2.54923e-05
2.55973e-05
2.57005e-05
2.58015e-05
2.59002e-05
2.5996e-05
2.60888e-05
2.61782e-05
2.62637e-05
2.6345e-05
2.64217e-05
2.64935e-05
2.65598e-05
2.66204e-05
2.66748e-05
2.67225e-05
2.67632e-05
2.67965e-05
2.6822e-05
2.68394e-05
2.68483e-05
2.68484e-05
2.68395e-05
2.68213e-05
2.67937e-05
2.67565e-05
2.67095e-05
2.66528e-05
2.65863e-05
2.65099e-05
2.64237e-05
2.63277e-05
2.62228e-05
2.61101e-05
2.59901e-05
2.58638e-05
2.57319e-05
2.55952e-05
2.54548e-05
2.53116e-05
2.51663e-05
2.50198e-05
2.48724e-05
2.47247e-05
2.45763e-05
2.4427e-05
2.42761e-05
2.41229e-05
2.39671e-05
2.3809e-05
2.36486e-05
2.30213e-05
2.28919e-05
2.27628e-05
2.26456e-05
2.25385e-05
2.24467e-05
2.23691e-05
2.23063e-05
2.2258e-05
2.22235e-05
2.2202e-05
2.21929e-05
2.21953e-05
2.22086e-05
2.2232e-05
2.22646e-05
2.23059e-05
2.23552e-05
2.24118e-05
2.24752e-05
2.25448e-05
2.262e-05
2.27003e-05
2.27852e-05
2.28742e-05
2.2967e-05
2.3063e-05
2.31619e-05
2.32633e-05
2.3367e-05
2.34726e-05
2.35798e-05
2.36885e-05
2.37982e-05
2.39089e-05
2.40202e-05
2.4132e-05
2.4244e-05
2.43559e-05
2.44676e-05
2.45789e-05
2.46895e-05
2.47995e-05
2.49085e-05
2.50165e-05
2.51232e-05
2.52285e-05
2.5332e-05
2.54334e-05
2.55326e-05
2.56292e-05
2.57229e-05
2.58133e-05
2.59002e-05
2.59831e-05
2.60617e-05
2.61355e-05
2.62044e-05
2.62677e-05
2.63252e-05
2.63764e-05
2.6421e-05
2.64586e-05
2.64888e-05
2.65112e-05
2.65256e-05
2.65315e-05
2.65287e-05
2.65171e-05
2.64963e-05
2.64663e-05
2.64269e-05
2.6378e-05
2.63198e-05
2.62521e-05
2.61751e-05
2.60889e-05
2.59936e-05
2.58894e-05
2.57769e-05
2.56574e-05
2.55319e-05
2.54011e-05
2.5266e-05
2.51275e-05
2.49863e-05
2.48436e-05
2.47004e-05
2.45572e-05
2.44149e-05
2.42739e-05
2.41344e-05
2.39961e-05
2.38587e-05
2.37215e-05
2.35836e-05
2.34447e-05
2.33047e-05
2.31631e-05
2.25762e-05
2.24668e-05
2.23578e-05
2.22599e-05
2.21719e-05
2.20985e-05
2.20388e-05
2.19932e-05
2.19614e-05
2.19428e-05
2.19365e-05
2.19419e-05
2.19583e-05
2.19848e-05
2.20208e-05
2.20655e-05
2.21182e-05
2.21782e-05
2.22449e-05
2.23179e-05
2.23964e-05
2.24801e-05
2.25684e-05
2.26608e-05
2.27569e-05
2.28562e-05
2.29584e-05
2.3063e-05
2.31696e-05
2.3278e-05
2.33879e-05
2.34989e-05
2.36108e-05
2.37233e-05
2.38362e-05
2.39492e-05
2.4062e-05
2.41745e-05
2.42864e-05
2.43975e-05
2.45076e-05
2.46165e-05
2.47241e-05
2.48302e-05
2.49346e-05
2.50371e-05
2.51374e-05
2.52351e-05
2.53302e-05
2.54221e-05
2.55107e-05
2.55955e-05
2.56764e-05
2.57528e-05
2.58244e-05
2.58909e-05
2.59518e-05
2.60069e-05
2.60556e-05
2.60977e-05
2.61328e-05
2.61606e-05
2.61806e-05
2.61925e-05
2.61961e-05
2.61912e-05
2.61774e-05
2.61546e-05
2.61227e-05
2.60815e-05
2.60312e-05
2.59716e-05
2.5903e-05
2.58254e-05
2.5739e-05
2.56441e-05
2.55409e-05
2.54296e-05
2.53107e-05
2.51857e-05
2.50557e-05
2.49216e-05
2.47844e-05
2.46449e-05
2.45041e-05
2.43629e-05
2.42223e-05
2.40831e-05
2.3946e-05
2.38117e-05
2.36804e-05
2.35524e-05
2.34271e-05
2.33041e-05
2.31828e-05
2.3062e-05
2.29417e-05
2.28209e-05
2.2699e-05
2.21552e-05
2.20656e-05
2.19762e-05
2.18969e-05
2.18271e-05
2.17709e-05
2.17278e-05
2.16979e-05
2.1681e-05
2.16766e-05
2.16837e-05
2.17018e-05
2.17301e-05
2.1768e-05
2.18147e-05
2.18696e-05
2.19318e-05
2.20009e-05
2.2076e-05
2.21568e-05
2.22426e-05
2.23331e-05
2.24278e-05
2.25261e-05
2.26277e-05
2.27321e-05
2.28388e-05
2.29476e-05
2.3058e-05
2.31696e-05
2.32823e-05
2.33956e-05
2.35093e-05
2.36232e-05
2.37368e-05
2.38501e-05
2.39626e-05
2.40742e-05
2.41847e-05
2.42938e-05
2.44014e-05
2.45072e-05
2.46112e-05
2.4713e-05
2.48124e-05
2.49092e-05
2.5003e-05
2.50937e-05
2.51808e-05
2.52642e-05
2.53434e-05
2.54181e-05
2.54879e-05
2.55526e-05
2.56117e-05
2.56648e-05
2.57117e-05
2.57519e-05
2.57851e-05
2.5811e-05
2.58292e-05
2.58394e-05
2.58413e-05
2.58348e-05
2.58195e-05
2.57953e-05
2.57621e-05
2.57199e-05
2.56685e-05
2.56082e-05
2.55389e-05
2.5461e-05
2.53745e-05
2.52799e-05
2.51774e-05
2.50675e-05
2.49504e-05
2.48266e-05
2.46973e-05
2.4564e-05
2.44277e-05
2.42896e-05
2.41503e-05
2.40108e-05
2.38721e-05
2.3735e-05
2.36004e-05
2.34691e-05
2.33416e-05
2.32185e-05
2.30998e-05
2.29857e-05
2.28756e-05
2.27689e-05
2.26649e-05
2.25626e-05
2.24615e-05
2.23606e-05
2.22587e-05
2.17592e-05
2.16885e-05
2.16178e-05
2.1556e-05
2.15031e-05
2.14628e-05
2.14346e-05
2.14188e-05
2.14151e-05
2.1423e-05
2.14417e-05
2.14706e-05
2.1509e-05
2.15563e-05
2.16118e-05
2.16749e-05
2.17449e-05
2.18212e-05
2.19031e-05
2.199e-05
2.20816e-05
2.21773e-05
2.22767e-05
2.23794e-05
2.24849e-05
2.25928e-05
2.27027e-05
2.28141e-05
2.29267e-05
2.30402e-05
2.31542e-05
2.32684e-05
2.33825e-05
2.34962e-05
2.36092e-05
2.37213e-05
2.38321e-05
2.39415e-05
2.40492e-05
2.4155e-05
2.42587e-05
2.43601e-05
2.4459e-05
2.45551e-05
2.46482e-05
2.47379e-05
2.4824e-05
2.49062e-05
2.49842e-05
2.50576e-05
2.51261e-05
2.51893e-05
2.5247e-05
2.52988e-05
2.53443e-05
2.53831e-05
2.5415e-05
2.54396e-05
2.54565e-05
2.54656e-05
2.54665e-05
2.54589e-05
2.54428e-05
2.54179e-05
2.53841e-05
2.53413e-05
2.52896e-05
2.52291e-05
2.51598e-05
2.50819e-05
2.49958e-05
2.49017e-05
2.48001e-05
2.46913e-05
2.45759e-05
2.44544e-05
2.43272e-05
2.4195e-05
2.40596e-05
2.39225e-05
2.37844e-05
2.36465e-05
2.35094e-05
2.33741e-05
2.32415e-05
2.31122e-05
2.29872e-05
2.28669e-05
2.27519e-05
2.26425e-05
2.25386e-05
2.24403e-05
2.23469e-05
2.22576e-05
2.21719e-05
2.20884e-05
2.20068e-05
2.19257e-05
2.18435e-05
2.1388e-05
2.13351e-05
2.12818e-05
2.12361e-05
2.11985e-05
2.11725e-05
2.11575e-05
2.1154e-05
2.11617e-05
2.118e-05
2.12083e-05
2.1246e-05
2.12927e-05
2.13475e-05
2.14101e-05
2.14796e-05
2.15556e-05
2.16373e-05
2.17242e-05
2.18157e-05
2.19114e-05
2.20107e-05
2.21134e-05
2.22189e-05
2.23269e-05
2.24368e-05
2.25483e-05
2.26609e-05
2.27743e-05
2.28881e-05
2.3002e-05
2.31156e-05
2.32287e-05
2.33408e-05
2.34518e-05
2.35613e-05
2.3669e-05
2.37748e-05
2.38784e-05
2.39796e-05
2.40782e-05
2.41738e-05
2.42663e-05
2.43553e-05
2.44407e-05
2.45221e-05
2.45991e-05
2.46716e-05
2.47391e-05
2.48014e-05
2.48581e-05
2.49089e-05
2.49534e-05
2.49914e-05
2.50224e-05
2.50462e-05
2.50624e-05
2.50709e-05
2.50713e-05
2.50634e-05
2.5047e-05
2.50219e-05
2.49882e-05
2.49456e-05
2.48942e-05
2.48341e-05
2.47653e-05
2.46882e-05
2.4603e-05
2.45099e-05
2.44095e-05
2.43023e-05
2.41886e-05
2.40691e-05
2.39445e-05
2.38152e-05
2.36818e-05
2.35458e-05
2.3409e-05
2.32723e-05
2.31367e-05
2.30031e-05
2.28722e-05
2.27449e-05
2.26218e-05
2.25036e-05
2.23909e-05
2.22843e-05
2.21839e-05
2.209e-05
2.20024e-05
2.19209e-05
2.18449e-05
2.17736e-05
2.17062e-05
2.16415e-05
2.1579e-05
2.1517e-05
2.14539e-05
2.10407e-05
2.10042e-05
2.09667e-05
2.09355e-05
2.09117e-05
2.0898e-05
2.08945e-05
2.09014e-05
2.09185e-05
2.09453e-05
2.09814e-05
2.10262e-05
2.10791e-05
2.11397e-05
2.12074e-05
2.12817e-05
2.13618e-05
2.14473e-05
2.15375e-05
2.16319e-05
2.17301e-05
2.18316e-05
2.1936e-05
2.20429e-05
2.21518e-05
2.22623e-05
2.23739e-05
2.24863e-05
2.2599e-05
2.27117e-05
2.28241e-05
2.29357e-05
2.30463e-05
2.31555e-05
2.3263e-05
2.33686e-05
2.3472e-05
2.3573e-05
2.36712e-05
2.37665e-05
2.38585e-05
2.39471e-05
2.40319e-05
2.41127e-05
2.41891e-05
2.42609e-05
2.43278e-05
2.43894e-05
2.44454e-05
2.44956e-05
2.45395e-05
2.4577e-05
2.46076e-05
2.46311e-05
2.46471e-05
2.46555e-05
2.46559e-05
2.46482e-05
2.46321e-05
2.46076e-05
2.45744e-05
2.45326e-05
2.44822e-05
2.44232e-05
2.43558e-05
2.42801e-05
2.41964e-05
2.41051e-05
2.40065e-05
2.39012e-05
2.37897e-05
2.36726e-05
2.35505e-05
2.34242e-05
2.32942e-05
2.31613e-05
2.30262e-05
2.28909e-05
2.27568e-05
2.26248e-05
2.24955e-05
2.237e-05
2.22488e-05
2.21325e-05
2.20218e-05
2.19171e-05
2.18189e-05
2.17276e-05
2.16433e-05
2.15659e-05
2.14952e-05
2.1431e-05
2.13725e-05
2.13189e-05
2.12695e-05
2.12229e-05
2.11785e-05
2.11347e-05
2.10894e-05
2.07162e-05
2.06945e-05
2.0671e-05
2.06526e-05
2.06405e-05
2.06374e-05
2.06434e-05
2.06588e-05
2.06834e-05
2.0717e-05
2.07589e-05
2.08088e-05
2.08663e-05
2.09309e-05
2.1002e-05
2.10792e-05
2.11619e-05
2.12494e-05
2.13413e-05
2.14371e-05
2.15362e-05
2.16383e-05
2.17429e-05
2.18497e-05
2.1958e-05
2.20676e-05
2.2178e-05
2.22887e-05
2.23994e-05
2.25096e-05
2.2619e-05
2.27273e-05
2.28341e-05
2.29391e-05
2.30419e-05
2.31424e-05
2.32402e-05
2.3335e-05
2.34266e-05
2.35147e-05
2.3599e-05
2.36793e-05
2.37553e-05
2.38266e-05
2.38931e-05
2.39543e-05
2.40099e-05
2.40598e-05
2.41035e-05
2.41408e-05
2.41714e-05
2.41949e-05
2.42112e-05
2.42199e-05
2.42209e-05
2.42139e-05
2.41987e-05
2.41751e-05
2.41432e-05
2.41029e-05
2.40541e-05
2.39969e-05
2.39314e-05
2.38578e-05
2.37765e-05
2.36876e-05
2.35916e-05
2.3489e-05
2.33803e-05
2.32661e-05
2.31471e-05
2.3024e-05
2.28975e-05
2.27683e-05
2.26371e-05
2.25047e-05
2.23724e-05
2.2242e-05
2.21145e-05
2.19907e-05
2.18713e-05
2.17569e-05
2.1648e-05
2.15452e-05
2.14489e-05
2.13594e-05
2.12771e-05
2.1202e-05
2.11343e-05
2.10737e-05
2.102e-05
2.09727e-05
2.09312e-05
2.08947e-05
2.08622e-05
2.08327e-05
2.08052e-05
2.0778e-05
2.0749e-05
2.04127e-05
2.0404e-05
2.03927e-05
2.03852e-05
2.03829e-05
2.03885e-05
2.04022e-05
2.04241e-05
2.04545e-05
2.04928e-05
2.05388e-05
2.05921e-05
2.06523e-05
2.07191e-05
2.07921e-05
2.08706e-05
2.09541e-05
2.10421e-05
2.11341e-05
2.12297e-05
2.13282e-05
2.14294e-05
2.15328e-05
2.16379e-05
2.17444e-05
2.18517e-05
2.19594e-05
2.2067e-05
2.21743e-05
2.22807e-05
2.23859e-05
2.24896e-05
2.25913e-05
2.26908e-05
2.27878e-05
2.28819e-05
2.29729e-05
2.30604e-05
2.31442e-05
2.32241e-05
2.32996e-05
2.33706e-05
2.34367e-05
2.34976e-05
2.35531e-05
2.36029e-05
2.36467e-05
2.36841e-05
2.3715e-05
2.37389e-05
2.37558e-05
2.37653e-05
2.37672e-05
2.37614e-05
2.37475e-05
2.37256e-05
2.36955e-05
2.36572e-05
2.36106e-05
2.35559e-05
2.3493e-05
2.34224e-05
2.3344e-05
2.32583e-05
2.31657e-05
2.30666e-05
2.29615e-05
2.2851e-05
2.27358e-05
2.26165e-05
2.24939e-05
2.23687e-05
2.22417e-05
2.21137e-05
2.19854e-05
2.18576e-05
2.17321e-05
2.16103e-05
2.14927e-05
2.13802e-05
2.12732e-05
2.11722e-05
2.10777e-05
2.099e-05
2.09093e-05
2.08358e-05
2.07698e-05
2.07112e-05
2.066e-05
2.06158e-05
2.05784e-05
2.05473e-05
2.05218e-05
2.05011e-05
2.04843e-05
2.04702e-05
2.0458e-05
2.04458e-05
2.04315e-05
2.01283e-05
2.01308e-05
2.01298e-05
2.01312e-05
2.01369e-05
2.01494e-05
2.01687e-05
2.01954e-05
2.02296e-05
2.0271e-05
2.03192e-05
2.03742e-05
2.04355e-05
2.05029e-05
2.0576e-05
2.06542e-05
2.0737e-05
2.0824e-05
2.09147e-05
2.10085e-05
2.1105e-05
2.12039e-05
2.13046e-05
2.14068e-05
2.15099e-05
2.16136e-05
2.17173e-05
2.18206e-05
2.19232e-05
2.20245e-05
2.21243e-05
2.22222e-05
2.23177e-05
2.24106e-05
2.25005e-05
2.25872e-05
2.26702e-05
2.27494e-05
2.28245e-05
2.2895e-05
2.29609e-05
2.30216e-05
2.30771e-05
2.31269e-05
2.31709e-05
2.32087e-05
2.32401e-05
2.32648e-05
2.32826e-05
2.32932e-05
2.32965e-05
2.32922e-05
2.32802e-05
2.32604e-05
2.32326e-05
2.31969e-05
2.31531e-05
2.31015e-05
2.3042e-05
2.29748e-05
2.29003e-05
2.28186e-05
2.27301e-05
2.26353e-05
2.25346e-05
2.24286e-05
2.2318e-05
2.22033e-05
2.20854e-05
2.19649e-05
2.18426e-05
2.17193e-05
2.15958e-05
2.14729e-05
2.13512e-05
2.12317e-05
2.11165e-05
2.10061e-05
2.09011e-05
2.0802e-05
2.07093e-05
2.06232e-05
2.05441e-05
2.04722e-05
2.04075e-05
2.03501e-05
2.03002e-05
2.02576e-05
2.02221e-05
2.01934e-05
2.01711e-05
2.01549e-05
2.01439e-05
2.01375e-05
2.01347e-05
2.01344e-05
2.01356e-05
2.01366e-05
2.0135e-05
1.98613e-05
1.9873e-05
1.98803e-05
1.98889e-05
1.99006e-05
1.9918e-05
1.99412e-05
1.99709e-05
2.00071e-05
2.00498e-05
2.00987e-05
2.01536e-05
2.02144e-05
2.02808e-05
2.03524e-05
2.04289e-05
2.05096e-05
2.05941e-05
2.06819e-05
2.07727e-05
2.08658e-05
2.0961e-05
2.10577e-05
2.11556e-05
2.12542e-05
2.13529e-05
2.14514e-05
2.15493e-05
2.16459e-05
2.17411e-05
2.18343e-05
2.19252e-05
2.20135e-05
2.20987e-05
2.21806e-05
2.22589e-05
2.23331e-05
2.24031e-05
2.24685e-05
2.25291e-05
2.25845e-05
2.26345e-05
2.26788e-05
2.27171e-05
2.27492e-05
2.27749e-05
2.27939e-05
2.28059e-05
2.28109e-05
2.28085e-05
2.27987e-05
2.27814e-05
2.27564e-05
2.27238e-05
2.26835e-05
2.26355e-05
2.258e-05
2.25171e-05
2.2447e-05
2.237e-05
2.22864e-05
2.21967e-05
2.21013e-05
2.20007e-05
2.18955e-05
2.17864e-05
2.16739e-05
2.15589e-05
2.14421e-05
2.13243e-05
2.12062e-05
2.10885e-05
2.09721e-05
2.08576e-05
2.07456e-05
2.06378e-05
2.05352e-05
2.04383e-05
2.03476e-05
2.02633e-05
2.01858e-05
2.01153e-05
2.00519e-05
1.99956e-05
1.99466e-05
1.99047e-05
1.987e-05
1.98422e-05
1.98212e-05
1.98065e-05
1.97979e-05
1.97949e-05
1.97967e-05
1.98028e-05
1.98121e-05
1.98237e-05
1.98364e-05
1.98485e-05
1.98577e-05
1.96096e-05
1.96287e-05
1.96424e-05
1.96563e-05
1.96722e-05
1.96927e-05
1.97181e-05
1.9749e-05
1.97856e-05
1.98279e-05
1.98758e-05
1.99292e-05
1.99879e-05
2.00518e-05
2.01206e-05
2.01938e-05
2.0271e-05
2.03516e-05
2.04354e-05
2.05217e-05
2.06102e-05
2.07004e-05
2.0792e-05
2.08844e-05
2.09772e-05
2.10699e-05
2.11621e-05
2.12533e-05
2.13431e-05
2.1431e-05
2.15167e-05
2.15998e-05
2.16798e-05
2.17565e-05
2.18296e-05
2.18987e-05
2.19634e-05
2.20236e-05
2.20788e-05
2.21289e-05
2.21735e-05
2.22124e-05
2.22453e-05
2.22721e-05
2.22924e-05
2.23061e-05
2.2313e-05
2.23129e-05
2.23057e-05
2.22913e-05
2.22696e-05
2.22405e-05
2.2204e-05
2.21603e-05
2.21093e-05
2.20512e-05
2.19863e-05
2.19147e-05
2.18368e-05
2.1753e-05
2.16637e-05
2.15693e-05
2.14704e-05
2.13677e-05
2.12617e-05
2.11531e-05
2.10427e-05
2.09311e-05
2.08191e-05
2.07075e-05
2.05969e-05
2.04881e-05