/*--------------------------------*- C++ -*----------------------------------*\
| =========                 |                                                 |
| \\      /  F ield         | OpenFOAM: The Open Source CFD Toolbox           |
|  \\    /   O peration     | Version:  2306                                  |
|   \\  /    A nd           | Website:  www.openfoam.com                      |
|    \\/     M anipulation  |                                                 |
\*---------------------------------------------------------------------------*/
// * * * * * * * * * * * * * * * * * * * * * * * * * * * * * * * * * * * * * //
FoamFile
{
    version         2;
    format          ascii;
    class           volScalarField;
    location        "6658.70999999028481";
    object          nut;
}

dimensions      [ 0 2 -1 0 0 0 0 ];

internalField   nonuniform List<scalar> 
14751
(
1.49317e-05
1.48372e-05
1.47512e-05
1.46987e-05
1.4654e-05
1.46377e-05
1.46347e-05
1.4651e-05
1.46846e-05
1.47353e-05
1.48029e-05
1.48871e-05
1.49873e-05
1.51028e-05
1.52335e-05
1.53775e-05
1.55344e-05
1.57026e-05
1.58806e-05
1.60677e-05
1.62623e-05
1.64634e-05
1.66694e-05
1.68795e-05
1.70924e-05
1.73067e-05
1.75212e-05
1.77348e-05
1.79466e-05
1.81558e-05
1.83618e-05
1.85638e-05
1.87611e-05
1.89532e-05
1.91395e-05
1.93196e-05
1.94928e-05
1.96589e-05
1.98176e-05
1.99684e-05
2.01106e-05
2.02445e-05
2.03699e-05
2.04868e-05
2.05948e-05
2.06937e-05
2.07831e-05
2.0863e-05
2.09334e-05
2.0994e-05
2.10447e-05
2.10854e-05
2.11161e-05
2.11366e-05
2.11466e-05
2.11463e-05
2.11353e-05
2.11138e-05
2.10817e-05
2.10394e-05
2.0987e-05
2.09246e-05
2.08523e-05
2.07697e-05
2.06771e-05
2.0575e-05
2.04638e-05
2.03436e-05
2.02148e-05
2.00778e-05
1.99334e-05
1.97817e-05
1.96234e-05
1.94589e-05
1.92886e-05
1.91129e-05
1.89326e-05
1.87479e-05
1.85595e-05
1.83675e-05
1.8173e-05
1.79762e-05
1.77778e-05
1.75785e-05
1.7379e-05
1.71804e-05
1.69835e-05
1.6789e-05
1.65978e-05
1.64109e-05
1.62296e-05
1.6055e-05
1.58867e-05
1.57268e-05
1.55725e-05
1.54275e-05
1.52853e-05
1.51505e-05
1.50148e-05
1.81408e-05
1.80474e-05
1.79603e-05
1.79201e-05
1.78891e-05
1.78942e-05
1.79152e-05
1.79596e-05
1.80245e-05
1.81092e-05
1.82132e-05
1.83359e-05
1.84764e-05
1.86334e-05
1.88064e-05
1.89933e-05
1.91932e-05
1.94043e-05
1.96249e-05
1.9854e-05
2.00898e-05
2.03311e-05
2.05763e-05
2.08241e-05
2.10734e-05
2.13227e-05
2.15707e-05
2.18164e-05
2.20587e-05
2.22969e-05
2.25303e-05
2.2758e-05
2.29796e-05
2.31944e-05
2.34019e-05
2.36016e-05
2.37931e-05
2.39761e-05
2.41503e-05
2.43152e-05
2.44704e-05
2.46159e-05
2.47516e-05
2.48774e-05
2.4993e-05
2.50982e-05
2.51927e-05
2.52765e-05
2.53496e-05
2.54117e-05
2.54628e-05
2.55027e-05
2.55314e-05
2.55487e-05
2.55543e-05
2.55484e-05
2.55306e-05
2.5501e-05
2.54596e-05
2.54066e-05
2.53421e-05
2.52663e-05
2.51792e-05
2.50806e-05
2.49707e-05
2.485e-05
2.47187e-05
2.45771e-05
2.44255e-05
2.42644e-05
2.40944e-05
2.39157e-05
2.3729e-05
2.35347e-05
2.33332e-05
2.3125e-05
2.29109e-05
2.26912e-05
2.24666e-05
2.22372e-05
2.20043e-05
2.17681e-05
2.15295e-05
2.12895e-05
2.10488e-05
2.08087e-05
2.05705e-05
2.03348e-05
2.01032e-05
1.98766e-05
1.9657e-05
1.94457e-05
1.92424e-05
1.90505e-05
1.88667e-05
1.86965e-05
1.85318e-05
1.83819e-05
1.8229e-05
2.17177e-05
2.16199e-05
2.15384e-05
2.15165e-05
2.15114e-05
2.15505e-05
2.16101e-05
2.16982e-05
2.18108e-05
2.19466e-05
2.21047e-05
2.22842e-05
2.24838e-05
2.27015e-05
2.29365e-05
2.3186e-05
2.3449e-05
2.37232e-05
2.40066e-05
2.42977e-05
2.45946e-05
2.48957e-05
2.51993e-05
2.55038e-05
2.58078e-05
2.611e-05
2.64089e-05
2.67034e-05
2.69923e-05
2.72749e-05
2.75504e-05
2.7818e-05
2.80771e-05
2.83272e-05
2.85678e-05
2.87986e-05
2.9019e-05
2.92287e-05
2.94276e-05
2.96153e-05
2.97914e-05
2.99558e-05
3.01084e-05
3.0249e-05
3.03775e-05
3.04938e-05
3.05974e-05
3.06886e-05
3.07673e-05
3.08332e-05
3.08863e-05
3.09263e-05
3.09533e-05
3.09671e-05
3.09673e-05
3.09541e-05
3.09272e-05
3.08865e-05
3.0832e-05
3.07638e-05
3.0682e-05
3.05868e-05
3.04781e-05
3.03561e-05
3.02206e-05
3.0072e-05
2.99107e-05
2.97369e-05
2.9551e-05
2.93532e-05
2.91442e-05
2.89243e-05
2.86941e-05
2.84541e-05
2.82047e-05
2.79465e-05
2.76804e-05
2.74065e-05
2.7126e-05
2.68388e-05
2.65466e-05
2.62497e-05
2.59492e-05
2.56463e-05
2.53421e-05
2.50382e-05
2.47363e-05
2.44373e-05
2.41432e-05
2.38556e-05
2.35768e-05
2.33083e-05
2.30505e-05
2.28078e-05
2.25772e-05
2.23658e-05
2.21651e-05
2.19869e-05
2.18131e-05
2.55252e-05
2.54235e-05
2.53577e-05
2.53636e-05
2.53987e-05
2.54864e-05
2.56009e-05
2.57501e-05
2.59285e-05
2.61342e-05
2.63657e-05
2.66216e-05
2.69e-05
2.71985e-05
2.75155e-05
2.78478e-05
2.81941e-05
2.85513e-05
2.89171e-05
2.92896e-05
2.96666e-05
3.00463e-05
3.04264e-05
3.08051e-05
3.11809e-05
3.15523e-05
3.19178e-05
3.22761e-05
3.26261e-05
3.29667e-05
3.32972e-05
3.36168e-05
3.3925e-05
3.42212e-05
3.4505e-05
3.47761e-05
3.50339e-05
3.52783e-05
3.55091e-05
3.57261e-05
3.59289e-05
3.61172e-05
3.62911e-05
3.64503e-05
3.65948e-05
3.67246e-05
3.68392e-05
3.69388e-05
3.70235e-05
3.70929e-05
3.7147e-05
3.71856e-05
3.72086e-05
3.72158e-05
3.72069e-05
3.7182e-05
3.71408e-05
3.70831e-05
3.7009e-05
3.69182e-05
3.68111e-05
3.66877e-05
3.6548e-05
3.63922e-05
3.622e-05
3.60319e-05
3.58281e-05
3.56089e-05
3.53745e-05
3.51253e-05
3.48619e-05
3.45847e-05
3.42943e-05
3.39913e-05
3.36761e-05
3.33496e-05
3.30125e-05
3.26653e-05
3.23093e-05
3.19447e-05
3.15733e-05
3.11956e-05
3.08132e-05
3.04277e-05
3.00405e-05
2.96539e-05
2.92697e-05
2.88896e-05
2.8516e-05
2.81511e-05
2.77977e-05
2.74576e-05
2.71321e-05
2.68266e-05
2.65385e-05
2.62762e-05
2.6032e-05
2.58197e-05
2.56258e-05
2.94913e-05
2.93913e-05
2.93527e-05
2.93978e-05
2.94884e-05
2.96412e-05
2.98274e-05
3.00552e-05
3.03175e-05
3.06116e-05
3.09352e-05
3.12864e-05
3.16624e-05
3.20603e-05
3.24779e-05
3.29113e-05
3.33588e-05
3.38165e-05
3.42818e-05
3.47523e-05
3.52253e-05
3.56989e-05
3.61703e-05
3.66374e-05
3.70985e-05
3.7552e-05
3.79961e-05
3.84296e-05
3.88512e-05
3.92597e-05
3.96545e-05
4.00347e-05
4.03997e-05
4.07492e-05
4.10826e-05
4.13997e-05
4.17001e-05
4.19835e-05
4.225e-05
4.24993e-05
4.27311e-05
4.29451e-05
4.31413e-05
4.33196e-05
4.348e-05
4.36225e-05
4.37468e-05
4.38529e-05
4.39408e-05
4.40105e-05
4.40618e-05
4.40943e-05
4.41082e-05
4.41031e-05
4.40788e-05
4.40352e-05
4.3972e-05
4.38891e-05
4.37864e-05
4.36637e-05
4.35213e-05
4.33591e-05
4.31772e-05
4.29759e-05
4.27548e-05
4.25143e-05
4.22547e-05
4.19762e-05
4.16792e-05
4.1364e-05
4.10312e-05
4.06813e-05
4.03151e-05
3.99332e-05
3.95362e-05
3.91252e-05
3.8701e-05
3.82644e-05
3.78169e-05
3.73589e-05
3.68928e-05
3.64192e-05
3.59402e-05
3.5458e-05
3.49744e-05
3.44923e-05
3.4014e-05
3.35418e-05
3.30788e-05
3.26276e-05
3.21918e-05
3.17732e-05
3.13742e-05
3.10003e-05
3.06507e-05
3.03347e-05
3.00461e-05
2.98003e-05
2.95914e-05
3.35845e-05
3.34955e-05
3.3497e-05
3.35949e-05
3.37561e-05
3.39901e-05
3.42656e-05
3.45902e-05
3.49538e-05
3.53537e-05
3.5787e-05
3.62509e-05
3.67414e-05
3.72552e-05
3.77894e-05
3.83395e-05
3.8903e-05
3.94753e-05
4.00536e-05
4.06348e-05
4.1216e-05
4.17947e-05
4.23679e-05
4.29332e-05
4.34887e-05
4.40326e-05
4.4563e-05
4.50786e-05
4.55779e-05
4.60599e-05
4.65238e-05
4.69687e-05
4.73942e-05
4.77998e-05
4.81852e-05
4.85501e-05
4.88941e-05
4.92171e-05
4.95191e-05
4.98001e-05
5.00596e-05
5.02975e-05
5.05137e-05
5.07082e-05
5.08812e-05
5.10326e-05
5.11621e-05
5.12696e-05
5.13555e-05
5.14194e-05
5.14613e-05
5.14808e-05
5.1478e-05
5.14527e-05
5.14044e-05
5.13332e-05
5.12387e-05
5.11207e-05
5.09792e-05
5.08139e-05
5.06252e-05
5.0413e-05
5.01773e-05
4.99184e-05
4.96362e-05
4.93308e-05
4.90027e-05
4.86522e-05
4.82795e-05
4.78852e-05
4.74699e-05
4.70344e-05
4.65794e-05
4.61057e-05
4.56143e-05
4.51063e-05
4.45829e-05
4.40453e-05
4.34949e-05
4.29329e-05
4.2362e-05
4.1783e-05
4.11989e-05
4.06121e-05
4.00252e-05
3.94415e-05
3.88641e-05
3.82957e-05
3.77402e-05
3.72007e-05
3.66808e-05
3.61826e-05
3.57099e-05
3.52691e-05
3.48601e-05
3.44935e-05
3.41648e-05
3.38913e-05
3.36754e-05
3.77984e-05
3.77325e-05
3.7788e-05
3.79532e-05
3.82007e-05
3.85319e-05
3.89133e-05
3.93518e-05
3.98348e-05
4.0357e-05
4.09157e-05
4.15074e-05
4.21272e-05
4.27709e-05
4.34348e-05
4.41136e-05
4.48046e-05
4.55019e-05
4.62028e-05
4.69032e-05
4.76004e-05
4.82911e-05
4.89723e-05
4.96412e-05
5.02956e-05
5.09337e-05
5.15537e-05
5.21538e-05
5.27327e-05
5.32893e-05
5.38229e-05
5.43326e-05
5.4818e-05
5.52787e-05
5.57144e-05
5.6125e-05
5.651e-05
5.68695e-05
5.72036e-05
5.75121e-05
5.77949e-05
5.80517e-05
5.82826e-05
5.84877e-05
5.86671e-05
5.8821e-05
5.89485e-05
5.90502e-05
5.91261e-05
5.91762e-05
5.92002e-05
5.91979e-05
5.91693e-05
5.91142e-05
5.90322e-05
5.89232e-05
5.8787e-05
5.86235e-05
5.84324e-05
5.82137e-05
5.79676e-05
5.76941e-05
5.73934e-05
5.70657e-05
5.6711e-05
5.63294e-05
5.59216e-05
5.54879e-05
5.50286e-05
5.45445e-05
5.40364e-05
5.3505e-05
5.29515e-05
5.23767e-05
5.1782e-05
5.11688e-05
5.05386e-05
4.98927e-05
4.92333e-05
4.85617e-05
4.78813e-05
4.7193e-05
4.65007e-05
4.58073e-05
4.51159e-05
4.44306e-05
4.37551e-05
4.30924e-05
4.24464e-05
4.1821e-05
4.12206e-05
4.06477e-05
4.0107e-05
3.96053e-05
3.91437e-05
3.87339e-05
3.83732e-05
3.80815e-05
3.78688e-05
4.21423e-05
4.21132e-05
4.22374e-05
4.24855e-05
4.28347e-05
4.3279e-05
4.37823e-05
4.43504e-05
4.49683e-05
4.5629e-05
4.63272e-05
4.70595e-05
4.78204e-05
4.86048e-05
4.94082e-05
5.02246e-05
5.10507e-05
5.18797e-05
5.27086e-05
5.35329e-05
5.43495e-05
5.5155e-05
5.5946e-05
5.67195e-05
5.74733e-05
5.82053e-05
5.89137e-05
5.95967e-05
6.0253e-05
6.08816e-05
6.14817e-05
6.20525e-05
6.25937e-05
6.3105e-05
6.35861e-05
6.40369e-05
6.44573e-05
6.48471e-05
6.52067e-05
6.55361e-05
6.58349e-05
6.61033e-05
6.63412e-05
6.65489e-05
6.67265e-05
6.68742e-05
6.69909e-05
6.70776e-05
6.71343e-05
6.7161e-05
6.71573e-05
6.71233e-05
6.70588e-05
6.69636e-05
6.68375e-05
6.66803e-05
6.64919e-05
6.62722e-05
6.6021e-05
6.57382e-05
6.54243e-05
6.50793e-05
6.47033e-05
6.42968e-05
6.38597e-05
6.33924e-05
6.28956e-05
6.23698e-05
6.18156e-05
6.12336e-05
6.06251e-05
5.9991e-05
5.93325e-05
5.8651e-05
5.7948e-05
5.72252e-05
5.64847e-05
5.57279e-05
5.49577e-05
5.41755e-05
5.33856e-05
5.25891e-05
5.17907e-05
5.09936e-05
5.02018e-05
4.94199e-05
4.86511e-05
4.78993e-05
4.71696e-05
4.64661e-05
4.57938e-05
4.51552e-05
4.45557e-05
4.40029e-05
4.34986e-05
4.30562e-05
4.26745e-05
4.23766e-05
4.2179e-05
4.66351e-05
4.66576e-05
4.68653e-05
4.7212e-05
4.76779e-05
4.82508e-05
4.88909e-05
4.96031e-05
5.03694e-05
5.11812e-05
5.20319e-05
5.29149e-05
5.38256e-05
5.47584e-05
5.57077e-05
5.66668e-05
5.76318e-05
5.85951e-05
5.95537e-05
6.05023e-05
6.1438e-05
6.23571e-05
6.32558e-05
6.41311e-05
6.49807e-05
6.58026e-05
6.65948e-05
6.73555e-05
6.80837e-05
6.87782e-05
6.94384e-05
7.00636e-05
7.06535e-05
7.12079e-05
7.17267e-05
7.22099e-05
7.26573e-05
7.30691e-05
7.34456e-05
7.37868e-05
7.40927e-05
7.43633e-05
7.45989e-05
7.47996e-05
7.4966e-05
7.5097e-05
7.51929e-05
7.52545e-05
7.52818e-05
7.52747e-05
7.52331e-05
7.51568e-05
7.5046e-05
7.49003e-05
7.47197e-05
7.45041e-05
7.42533e-05
7.39674e-05
7.36462e-05
7.32898e-05
7.28986e-05
7.2473e-05
7.2013e-05
7.15192e-05
7.09918e-05
7.04314e-05
6.98386e-05
6.92143e-05
6.85591e-05
6.78741e-05
6.71607e-05
6.64199e-05
6.56535e-05
6.48629e-05
6.40501e-05
6.32173e-05
6.23667e-05
6.15004e-05
6.06215e-05
5.97321e-05
5.88369e-05
5.79375e-05
5.70392e-05
5.61458e-05
5.52615e-05
5.43902e-05
5.35371e-05
5.27064e-05
5.19038e-05
5.11335e-05
5.04008e-05
4.97084e-05
4.90623e-05
4.84707e-05
4.79362e-05
4.74738e-05
4.70839e-05
4.67932e-05
4.66238e-05
5.13023e-05
5.13911e-05
5.16969e-05
5.21576e-05
5.27544e-05
5.34697e-05
5.42601e-05
5.51288e-05
5.60547e-05
5.70276e-05
5.80393e-05
5.90822e-05
6.01478e-05
6.12327e-05
6.23307e-05
6.34337e-05
6.45377e-05
6.56344e-05
6.67203e-05
6.77902e-05
6.88409e-05
6.98685e-05
7.08694e-05
7.18403e-05
7.27791e-05
7.36835e-05
7.45518e-05
7.53823e-05
7.61739e-05
7.69256e-05
7.76369e-05
7.83072e-05
7.89364e-05
7.95244e-05
8.00711e-05
8.05767e-05
8.10412e-05
8.14648e-05
8.18478e-05
8.21906e-05
8.24931e-05
8.27555e-05
8.29782e-05
8.31616e-05
8.33055e-05
8.34094e-05
8.34739e-05
8.34998e-05
8.3487e-05
8.34356e-05
8.33456e-05
8.32168e-05
8.30494e-05
8.28433e-05
8.25984e-05
8.23147e-05
8.19921e-05
8.16309e-05
8.1231e-05
8.07927e-05
8.03164e-05
7.98026e-05
7.92516e-05
7.86641e-05
7.80405e-05
7.73815e-05
7.66881e-05
7.59613e-05
7.5202e-05
7.44116e-05
7.35915e-05
7.27433e-05
7.1869e-05
7.09704e-05
7.00498e-05
6.91098e-05
6.8153e-05
6.7182e-05
6.62004e-05
6.52107e-05
6.42182e-05
6.32249e-05
6.22368e-05
6.12568e-05
6.02899e-05
5.93413e-05
5.84166e-05
5.75202e-05
5.66582e-05
5.58349e-05
5.50558e-05
5.43237e-05
5.3645e-05
5.30285e-05
5.24777e-05
5.20092e-05
5.16251e-05
5.13556e-05
5.12283e-05
5.6173e-05
5.63424e-05
5.67598e-05
5.73485e-05
5.80888e-05
5.89588e-05
5.99106e-05
6.09456e-05
6.20397e-05
6.31803e-05
6.43582e-05
6.55646e-05
6.67892e-05
6.80262e-05
6.92716e-05
7.05163e-05
7.17557e-05
7.29809e-05
7.41886e-05
7.53731e-05
7.65314e-05
7.76596e-05
7.87539e-05
7.98114e-05
8.08298e-05
8.18069e-05
8.27411e-05
8.36308e-05
8.44751e-05
8.52733e-05
8.60247e-05
8.67291e-05
8.73865e-05
8.79969e-05
8.85603e-05
8.90771e-05
8.95472e-05
8.99713e-05
9.03497e-05
9.06828e-05
9.09708e-05
9.1214e-05
9.14129e-05
9.15678e-05
9.16778e-05
9.17437e-05
9.17661e-05
9.17457e-05
9.16824e-05
9.15766e-05
9.14281e-05
9.12369e-05
9.10035e-05
9.07277e-05
9.04095e-05
9.00491e-05
8.96467e-05
8.92024e-05
8.87166e-05
8.81895e-05
8.76219e-05
8.70143e-05
8.63672e-05
8.56816e-05
8.49581e-05
8.41976e-05
8.34014e-05
8.25706e-05
8.17067e-05
8.0811e-05
7.98856e-05
7.89321e-05
7.7953e-05
7.69505e-05
7.59271e-05
7.4886e-05
7.38303e-05
7.27628e-05
7.16876e-05
7.06079e-05
6.95294e-05
6.84545e-05
6.7388e-05
6.63342e-05
6.52989e-05
6.42879e-05
6.33066e-05
6.236e-05
6.14541e-05
6.05934e-05
5.97835e-05
5.90271e-05
5.8331e-05
5.77046e-05
5.7152e-05
5.66918e-05
5.63276e-05
5.60934e-05
5.6022e-05
6.12778e-05
6.15407e-05
6.20816e-05
6.28106e-05
6.37049e-05
6.47391e-05
6.58607e-05
6.70688e-05
6.83362e-05
6.9648e-05
7.09937e-05
7.23633e-05
7.37459e-05
7.51331e-05
7.65208e-05
7.79011e-05
7.9269e-05
8.06147e-05
8.19352e-05
8.32249e-05
8.44805e-05
8.56985e-05
8.68752e-05
8.80076e-05
8.90938e-05
9.01316e-05
9.11195e-05
9.20563e-05
9.29411e-05
9.37733e-05
9.45526e-05
9.52787e-05
9.5952e-05
9.65724e-05
9.71404e-05
9.76563e-05
9.81202e-05
9.8533e-05
9.8895e-05
9.92068e-05
9.94689e-05
9.96817e-05
9.98457e-05
9.99601e-05
0.000100026
0.000100043
0.000100013
9.9936e-05
9.98125e-05
9.96425e-05
9.94263e-05
9.9164e-05
9.88559e-05
9.85022e-05
9.81031e-05
9.76589e-05
9.71698e-05
9.66363e-05
9.60589e-05
9.54381e-05
9.47748e-05
9.40697e-05
9.33237e-05
9.25378e-05
9.17129e-05
9.08504e-05
8.99516e-05
8.90181e-05
8.80516e-05
8.70538e-05
8.6027e-05
8.49734e-05
8.38955e-05
8.27961e-05
8.16782e-05
8.05452e-05
7.94006e-05
7.82478e-05
7.70914e-05
7.59349e-05
7.47847e-05
7.36416e-05
7.25115e-05
7.14e-05
7.03129e-05
6.92562e-05
6.82355e-05
6.72556e-05
6.63228e-05
6.54416e-05
6.46173e-05
6.38527e-05
6.31548e-05
6.25335e-05
6.19937e-05
6.15558e-05
6.1225e-05
6.1039e-05
6.10363e-05
6.66474e-05
6.70148e-05
6.76886e-05
6.85676e-05
6.96237e-05
7.08284e-05
7.21249e-05
7.35095e-05
7.49516e-05
7.64342e-05
7.79455e-05
7.94746e-05
8.10097e-05
8.2542e-05
8.4064e-05
8.55706e-05
8.70566e-05
8.8512e-05
8.99337e-05
9.13162e-05
9.26566e-05
9.39513e-05
9.51972e-05
9.63912e-05
9.75317e-05
9.86167e-05
9.96448e-05
0.000100615
0.000101527
0.00010238
0.000103174
0.000103909
0.000104585
0.000105202
0.000105762
0.000106265
0.00010671
0.0001071
0.000107434
0.000107713
0.000107938
0.000108109
0.000108226
0.00010829
0.0001083
0.000108259
0.000108167
0.000108025
0.000107832
0.000107589
0.000107297
0.000106956
0.000106566
0.000106128
0.000105641
0.000105108
0.000104527
0.0001039
0.000103227
0.00010251
0.000101748
0.000100944
0.000100099
9.92125e-05
9.82873e-05
9.73246e-05
9.63262e-05
9.52939e-05
9.42296e-05
9.31355e-05
9.20143e-05
9.08684e-05
8.97008e-05
8.85146e-05
8.73131e-05
8.61003e-05
8.48801e-05
8.36562e-05
8.24336e-05
8.12163e-05
8.00099e-05
7.88148e-05
7.7639e-05
7.64878e-05
7.53673e-05
7.42832e-05
7.32412e-05
7.22462e-05
7.13042e-05
7.04197e-05
6.95977e-05
6.88408e-05
6.81562e-05
6.75544e-05
6.70411e-05
6.66383e-05
6.63529e-05
6.62267e-05
6.63032e-05
7.23108e-05
7.2791e-05
7.36043e-05
7.46396e-05
7.58617e-05
7.724e-05
7.87128e-05
8.02734e-05
8.18878e-05
8.3537e-05
8.5208e-05
8.6889e-05
8.85679e-05
9.02352e-05
9.18828e-05
9.35029e-05
9.50938e-05
9.66453e-05
9.81543e-05
9.96154e-05
0.000101026
0.000102383
0.000103683
0.000104924
0.000106104
0.000107222
0.000108275
0.000109265
0.00011019
0.000111049
0.000111844
0.000112574
0.00011324
0.000113842
0.000114382
0.000114858
0.000115273
0.000115628
0.000115922
0.000116158
0.000116335
0.000116453
0.000116513
0.000116516
0.000116462
0.000116354
0.000116191
0.000115974
0.000115704
0.000115382
0.000115007
0.00011458
0.000114103
0.000113575
0.000112997
0.00011237
0.000111695
0.000110972
0.000110202
0.000109387
0.000108528
0.000107626
0.000106682
0.000105698
0.000104676
0.000103618
0.000102526
0.000101401
0.000100247
9.9065e-05
9.78591e-05
9.66317e-05
9.53863e-05
9.41262e-05
9.28552e-05
9.15776e-05
9.02976e-05
8.90194e-05
8.77484e-05
8.64886e-05
8.52428e-05
8.40151e-05
8.28131e-05
8.16418e-05
8.05072e-05
7.9415e-05
7.83707e-05
7.73789e-05
7.64454e-05
7.55743e-05
7.47706e-05
7.40365e-05
7.33792e-05
7.28099e-05
7.23348e-05
7.19779e-05
7.17478e-05
7.16903e-05
7.18545e-05
7.8294e-05
7.88921e-05
7.98478e-05
8.10422e-05
8.24311e-05
8.39819e-05
8.56285e-05
8.73606e-05
8.91412e-05
9.0949e-05
9.27701e-05
9.45922e-05
9.64027e-05
9.8192e-05
9.99518e-05
0.000101673
0.000103353
0.000104985
0.000106565
0.000108089
0.000109554
0.000110957
0.000112296
0.000113568
0.000114772
0.000115907
0.000116972
0.000117966
0.000118889
0.000119741
0.000120523
0.000121235
0.000121878
0.000122452
0.000122958
0.000123398
0.000123771
0.000124079
0.000124323
0.000124504
0.000124622
0.000124678
0.000124671
0.000124605
0.000124479
0.000124295
0.000124054
0.000123756
0.000123403
0.000122995
0.000122532
0.000122016
0.000121447
0.000120826
0.000120154
0.000119432
0.000118661
0.000117842
0.000116976
0.000116065
0.00011511
0.000114113
0.000113076
0.000112
0.000110887
0.000109741
0.000108563
0.000107355
0.000106121
0.000104864
0.000103586
0.000102291
0.000100983
9.96644e-05
9.83407e-05
9.7016e-05
9.56949e-05
9.43817e-05
9.30825e-05
9.17979e-05
9.05337e-05
8.92943e-05
8.80867e-05
8.69157e-05
8.57871e-05
8.47062e-05
8.36782e-05
8.27074e-05
8.17992e-05
8.09574e-05
8.01864e-05
7.94882e-05
7.88701e-05
7.83437e-05
7.79162e-05
7.76131e-05
7.74451e-05
7.74623e-05
7.77194e-05
8.4619e-05
8.53363e-05
8.64334e-05
8.77856e-05
8.93381e-05
9.10566e-05
9.28705e-05
9.47658e-05
9.67027e-05
9.86576e-05
0.000100616
0.000102565
0.000104492
0.000106388
0.000108244
0.00011005
0.000111803
0.000113498
0.000115133
0.000116702
0.000118204
0.000119637
0.000120998
0.000122285
0.000123498
0.000124635
0.000125696
0.00012668
0.000127587
0.000128419
0.000129175
0.000129856
0.000130463
0.000130996
0.000131458
0.000131849
0.000132169
0.000132421
0.000132605
0.000132722
0.000132771
0.000132755
0.000132674
0.000132531
0.000132326
0.00013206
0.000131735
0.000131351
0.00013091
0.000130412
0.000129859
0.00012925
0.000128588
0.000127873
0.000127106
0.00012629
0.000125424
0.000124511
0.000123552
0.000122549
0.000121503
0.000120418
0.000119294
0.000118134
0.00011694
0.000115716
0.000114463
0.000113186
0.000111886
0.000110567
0.000109233
0.000107887
0.000106533
0.000105176
0.000103819
0.000102468
0.000101126
9.97997e-05
9.84926e-05
9.72046e-05
9.5944e-05
9.47145e-05
9.35224e-05
9.23723e-05
9.12693e-05
9.02185e-05
8.92245e-05
8.82911e-05
8.74232e-05
8.66241e-05
8.58979e-05
8.52459e-05
8.46758e-05
8.41997e-05
8.38255e-05
8.35806e-05
8.3478e-05
8.35721e-05
8.3924e-05
9.13031e-05
9.21366e-05
9.33701e-05
9.48746e-05
9.65838e-05
9.84611e-05
0.000100432
0.000102479
0.000104558
0.000106646
0.000108726
0.000110786
0.000112812
0.000114796
0.00011673
0.000118604
0.000120415
0.000122155
0.000123825
0.000125422
0.000126944
0.000128389
0.000129756
0.000131042
0.000132248
0.000133372
0.000134414
0.000135373
0.000136252
0.000137049
0.000137766
0.000138404
0.000138964
0.000139446
0.000139853
0.000140184
0.000140443
0.000140629
0.000140743
0.000140786
0.000140759
0.000140665
0.000140504
0.000140278
0.000139988
0.000139636
0.000139223
0.00013875
0.000138218
0.000137628
0.000136982
0.000136281
0.000135525
0.000134717
0.000133859
0.00013295
0.000131994
0.000130992
0.000129945
0.000128857
0.000127729
0.000126563
0.000125363
0.00012413
0.000122868
0.000121579
0.000120267
0.000118935
0.000117585
0.000116223
0.000114852
0.000113475
0.000112097
0.000110721
0.000109353
0.000107998
0.000106659
0.000105343
0.000104048
0.00010278
0.000101546
0.000100348
9.91919e-05
9.80824e-05
9.70235e-05
9.60199e-05
9.50754e-05
9.41933e-05
9.33779e-05
9.26318e-05
9.19588e-05
9.13599e-05
9.08426e-05
9.04199e-05
9.01007e-05
8.99143e-05
8.98761e-05
9.00451e-05
9.04894e-05
9.83582e-05
9.93005e-05
0.000100661
0.000102309
0.000104164
0.000106188
0.000108302
0.000110485
0.000112691
0.000114893
0.000117077
0.000119228
0.000121336
0.000123389
0.000125381
0.000127304
0.000129154
0.000130922
0.00013261
0.000134216
0.000135741
0.000137182
0.000138538
0.000139807
0.000140991
0.000142087
0.000143096
0.000144018
0.000144854
0.000145605
0.000146272
0.000146856
0.000147357
0.000147778
0.00014812
0.000148384
0.000148572
0.000148683
0.000148719
0.000148682
0.000148574
0.000148396
0.000148149
0.000147837
0.000147459
0.000147018
0.000146514
0.00014595
0.000145327
0.000144646
0.000143909
0.000143116
0.000142271
0.000141374
0.000140427
0.000139433
0.000138393
0.000137309
0.000136184
0.000135021
0.000133821
0.000132588
0.000131324
0.000130033
0.000128718
0.000127381
0.000126027
0.000124659
0.000123281
0.000121896
0.000120509
0.000119124
0.000117744
0.000116375
0.000115021
0.000113686
0.000112375
0.000111091
0.000109832
0.000108607
0.00010742
0.000106275
0.000105175
0.000104124
0.000103125
0.000102183
0.0001013
0.00010048
9.97249e-05
9.9038e-05
9.84222e-05
9.78784e-05
9.74143e-05
9.70435e-05
9.67762e-05
9.66438e-05
9.66645e-05
9.6902e-05
9.74321e-05
0.000105791
0.00010683
0.000108306
0.000110083
0.000112069
0.000114224
0.000116465
0.000118766
0.00012108
0.000123378
0.000125645
0.000127868
0.000130035
0.000132138
0.000134169
0.00013612
0.000137989
0.000139768
0.000141458
0.000143057
0.000144567
0.000145987
0.000147316
0.000148554
0.000149701
0.000150755
0.000151719
0.000152591
0.000153373
0.000154067
0.000154673
0.000155193
0.000155627
0.000155978
0.000156248
0.000156435
0.000156543
0.000156573
0.000156526
0.000156405
0.00015621
0.000155945
0.000155611
0.00015521
0.000154743
0.000154212
0.000153618
0.000152965
0.000152252
0.000151482
0.000150657
0.000149779
0.000148849
0.000147869
0.000146842
0.000145771
0.000144657
0.000143502
0.000142311
0.000141086
0.000139829
0.000138544
0.000137233
0.000135902
0.000134552
0.000133188
0.000131814
0.000130433
0.000129049
0.000127666
0.000126288
0.00012492
0.000123565
0.000122228
0.000120913
0.000119624
0.000118366
0.000117136
0.000115938
0.000114778
0.00011366
0.000112585
0.000111557
0.000110579
0.000109653
0.000108783
0.00010797
0.000107216
0.000106525
0.000105899
0.000105339
0.000104847
0.000104431
0.000104105
0.000103882
0.000103794
0.000103863
0.000104158
0.000104763
0.000113604
0.000114723
0.000116298
0.000118187
0.000120289
0.000122556
0.000124905
0.000127303
0.000129704
0.000132077
0.000134406
0.000136679
0.000138886
0.000141016
0.000143066
0.000145026
0.000146895
0.000148667
0.000150341
0.000151918
0.000153399
0.000154782
0.00015607
0.000157262
0.000158359
0.00015936
0.000160265
0.000161077
0.000161795
0.000162422
0.000162958
0.000163405
0.000163765
0.000164038
0.000164227
0.000164332
0.000164356
0.0001643
0.000164167
0.000163958
0.000163676
0.000163323
0.0001629
0.00016241
0.000161855
0.000161236
0.000160556
0.000159816
0.000159018
0.000158166
0.000157259
0.000156302
0.000155296
0.000154244
0.000153148
0.000152011
0.000150836
0.000149626
0.000148384
0.000147113
0.000145817
0.0001445
0.000143164
0.000141814
0.000140453
0.000139085
0.000137715
0.000136347
0.000134983
0.000133629
0.000132289
0.000130965
0.000129663
0.000128385
0.000127137
0.00012592
0.000124738
0.000123585
0.000122469
0.000121393
0.000120361
0.000119372
0.00011843
0.000117535
0.00011669
0.000115896
0.000115155
0.000114468
0.000113839
0.000113267
0.000112756
0.000112306
0.000111927
0.000111635
0.000111441
0.000111383
0.000111486
0.000111824
0.000112488
0.000121794
0.000122974
0.000124629
0.000126612
0.000128808
0.000131168
0.000133602
0.000136077
0.000138543
0.000140968
0.000143338
0.000145639
0.000147864
0.000150002
0.00015205
0.000154
0.000155851
0.000157597
0.000159239
0.000160778
0.000162215
0.000163551
0.000164785
0.00016592
0.000166954
0.00016789
0.000168728
0.000169469
0.000170115
0.000170666
0.000171125
0.000171492
0.00017177
0.000171959
0.000172062
0.000172082
0.000172019
0.000171876
0.000171655
0.000171359
0.00017099
0.00017055
0.000170041
0.000169465
0.000168825
0.000168123
0.000167361
0.000166541
0.000165667
0.00016474
0.000163762
0.000162737
0.000161667
0.000160556
0.000159405
0.000158219
0.000157
0.000155753
0.00015448
0.000153185
0.000151872
0.000150545
0.000149208
0.000147864
0.000146519
0.000145175
0.000143838
0.000142511
0.000141198
0.000139902
0.000138628
0.000137379
0.000136158
0.000134968
0.000133812
0.000132693
0.000131607
0.000130553
0.000129537
0.000128562
0.000127629
0.000126737
0.000125887
0.00012508
0.000124316
0.000123597
0.000122924
0.000122298
0.00012172
0.000121191
0.000120715
0.000120293
0.000119935
0.000119656
0.000119474
0.000119427
0.000119544
0.000119905
0.00012061
0.000130358
0.000131576
0.000133288
0.000135343
0.000137614
0.000140043
0.000142541
0.00014507
0.000147577
0.000150033
0.000152421
0.00015473
0.000156951
0.000159078
0.000161105
0.000163026
0.000164841
0.000166545
0.00016814
0.000169626
0.000171006
0.00017228
0.00017345
0.000174517
0.000175481
0.000176343
0.000177105
0.000177768
0.000178333
0.000178803
0.000179178
0.00017946
0.000179652
0.000179756
0.000179772
0.000179705
0.000179555
0.000179325
0.000179019
0.000178637
0.000178184
0.00017766
0.000177069
0.000176414
0.000175696
0.000174919
0.000174084
0.000173195
0.000172254
0.000171265
0.00017023
0.000169152
0.000168035
0.000166881
0.000165694
0.000164479
0.000163237
0.000161975
0.000160694
0.0001594
0.000158097
0.000156788
0.000155478
0.000154171
0.000152871
0.000151583
0.00015031
0.000149056
0.000147824
0.000146619
0.000145442
0.000144296
0.000143185
0.00014211
0.000141072
0.000140072
0.000139101
0.000138162
0.000137261
0.000136397
0.000135571
0.000134779
0.000134022
0.0001333
0.000132613
0.00013196
0.000131344
0.000130763
0.00013022
0.000129717
0.000129256
0.000128839
0.000128478
0.000128191
0.000127996
0.000127935
0.000128043
0.000128404
0.000129127
0.000139291
0.00014052
0.000142268
0.000144371
0.000146692
0.000149169
0.000151707
0.000154266
0.000156793
0.000159256
0.000161641
0.000163937
0.000166136
0.000168231
0.000170219
0.000172095
0.000173858
0.000175505
0.000177039
0.00017846
0.000179771
0.000180973
0.000182069
0.000183058
0.000183943
0.000184725
0.000185405
0.000185984
0.000186465
0.000186849
0.000187138
0.000187334
0.00018744
0.000187457
0.000187387
0.000187234
0.000187
0.000186687
0.000186299
0.000185837
0.000185305
0.000184706
0.000184041
0.000183315
0.00018253
0.000181688
0.000180794
0.000179849
0.000178857
0.000177822
0.000176747
0.000175635
0.00017449
0.000173316
0.000172116
0.000170895
0.000169657
0.000168406
0.000167147
0.000165883
0.00016462
0.000163361
0.00016211
0.000160873
0.000159653
0.000158453
0.000157278
0.000156131
0.000155014
0.00015393
0.000152881
0.000151869
0.000150894
0.000149958
0.00014906
0.000148194
0.000147352
0.000146542
0.000145763
0.000145014
0.000144294
0.000143599
0.000142929
0.000142282
0.000141656
0.000141054
0.000140474
0.000139918
0.000139387
0.000138883
0.00013841
0.000137971
0.000137579
0.000137254
0.000137018
0.000136915
0.000136986
0.000137321
0.000138037
0.000148587
0.000149801
0.000151559
0.000153687
0.000156035
0.000158535
0.000161091
0.000163657
0.000166181
0.000168631
0.000170992
0.000173255
0.000175413
0.00017746
0.000179393
0.000181208
0.000182906
0.000184483
0.000185943
0.000187288
0.000188521
0.000189643
0.000190656
0.000191562
0.000192363
0.000193059
0.000193653
0.000194146
0.00019454
0.000194838
0.000195041
0.000195152
0.000195173
0.000195106
0.000194954
0.00019472
0.000194407
0.000194018
0.000193555
0.000193022
0.000192421
0.000191756
0.00019103
0.000190245
0.000189407
0.000188516
0.000187578
0.000186596
0.000185573
0.000184513
0.000183419
0.000182297
0.000181149
0.000179981
0.000178796
0.000177599
0.000176394
0.000175187
0.000173981
0.000172782
0.000171593
0.000170419
0.000169264
0.000168132
0.000167028
0.000165953
0.000164911
0.000163905
0.000162935
0.000162005
0.000161113
0.00016026
0.000159446
0.000158669
0.000157927
0.000157203
0.000156501
0.000155822
0.000155166
0.000154528
0.000153906
0.000153297
0.000152697
0.000152105
0.000151521
0.000150944
0.000150374
0.000149813
0.000149262
0.000148726
0.000148208
0.000147713
0.000147256
0.00014686
0.000146549
0.000146373
0.000146377
0.000146655
0.000147336
0.000158245
0.000159417
0.000161158
0.000163286
0.000165638
0.000168138
0.000170688
0.00017324
0.00017574
0.000178157
0.000180475
0.000182688
0.000184787
0.00018677
0.000188634
0.000190376
0.000191996
0.000193493
0.000194871
0.000196132
0.000197279
0.000198314
0.000199241
0.00020006
0.000200773
0.000201382
0.000201889
0.000202296
0.000202605
0.000202818
0.000202938
0.000202967
0.000202908
0.000202764
0.000202537
0.00020223
0.000201847
0.000201391
0.000200865
0.000200272
0.000199616
0.0001989
0.000198128
0.000197303
0.000196429
0.00019551
0.00019455
0.000193552
0.000192521
0.000191461
0.000190377
0.000189272
0.000188152
0.00018702
0.000185882
0.000184743
0.000183607
0.00018248
0.000181364
0.000180267
0.000179191
0.00017814
0.00017712
0.000176132
0.00017518
0.000174267
0.000173394
0.000172562
0.000171771
0.000171022
0.000170313
0.000169642