/*--------------------------------*- C++ -*----------------------------------*\
  =========                 |
  \\      /  F ield         | OpenFOAM: The Open Source CFD Toolbox
   \\    /   O peration     | Website:  https://openfoam.org
    \\  /    A nd           | Version:  7
     \\/     M anipulation  |
\*---------------------------------------------------------------------------*/
FoamFile
{
    version     2.0;
    format      ascii;
    class       volScalarField;
    location    "6658.70999999028481";
    object      p;
}
// * * * * * * * * * * * * * * * * * * * * * * * * * * * * * * * * * * * * * //

dimensions      [0 2 -2 0 0 0 0];

internalField   nonuniform List<scalar> 
14751
(
-8.00474e-19
2.91698e-06
7.27673e-06
1.12029e-05
1.56856e-05
2.0169e-05
2.47666e-05
2.94004e-05
3.40178e-05
3.85795e-05
4.30439e-05
4.73829e-05
5.15606e-05
5.55507e-05
5.9343e-05
6.29039e-05
6.62465e-05
6.93386e-05
7.21972e-05
7.48049e-05
7.71752e-05
7.93034e-05
8.1199e-05
8.28633e-05
8.43074e-05
8.55359e-05
8.65586e-05
8.7383e-05
8.80179e-05
8.84715e-05
8.87525e-05
8.88681e-05
8.88267e-05
8.86353e-05
8.83006e-05
8.78301e-05
8.72285e-05
8.65032e-05
8.56581e-05
8.47e-05
8.36318e-05
8.24593e-05
8.11862e-05
7.98157e-05
7.83522e-05
7.67985e-05
7.51574e-05
7.34325e-05
7.16259e-05
6.97409e-05
6.77799e-05
6.57449e-05
6.36395e-05
6.14654e-05
5.92253e-05
5.69223e-05
5.45585e-05
5.21373e-05
4.96618e-05
4.71343e-05
4.45599e-05
4.19411e-05
3.92818e-05
3.65875e-05
3.38614e-05
3.11103e-05
2.83384e-05
2.55533e-05
2.27604e-05
1.99672e-05
1.71821e-05
1.4412e-05
1.16674e-05
8.95644e-06
6.29054e-06
3.6794e-06
1.13852e-06
-1.32557e-06
-3.68903e-06
-5.95214e-06
-8.07789e-06
-1.00714e-05
-1.18947e-05
-1.35417e-05
-1.49829e-05
-1.62022e-05
-1.71721e-05
-1.78799e-05
-1.82938e-05
-1.84054e-05
-1.81825e-05
-1.76206e-05
-1.67259e-05
-1.54272e-05
-1.38528e-05
-1.17902e-05
-9.59409e-06
-6.71843e-06
-4.1897e-06
3.60072e-09
2.92081e-06
7.27752e-06
1.12007e-05
1.56808e-05
2.01613e-05
2.47568e-05
2.93883e-05
3.40038e-05
3.85636e-05
4.30263e-05
4.73638e-05
5.15402e-05
5.55291e-05
5.93205e-05
6.28806e-05
6.62226e-05
6.93143e-05
7.21727e-05
7.47802e-05
7.71505e-05
7.92789e-05
8.11748e-05
8.28395e-05
8.42841e-05
8.55133e-05
8.65366e-05
8.73618e-05
8.79975e-05
8.84519e-05
8.87337e-05
8.88503e-05
8.88098e-05
8.86193e-05
8.82855e-05
8.7816e-05
8.72153e-05
8.6491e-05
8.56468e-05
8.46896e-05
8.36224e-05
8.24508e-05
8.11787e-05
7.98091e-05
7.83466e-05
7.67938e-05
7.51536e-05
7.34297e-05
7.1624e-05
6.97399e-05
6.77799e-05
6.57459e-05
6.36414e-05
6.14683e-05
5.92292e-05
5.69272e-05
5.45643e-05
5.21441e-05
4.96697e-05
4.71433e-05
4.45699e-05
4.1952e-05
3.92938e-05
3.66006e-05
3.38755e-05
3.11253e-05
2.83545e-05
2.55704e-05
2.27784e-05
1.99862e-05
1.7202e-05
1.44327e-05
1.1689e-05
8.97886e-06
6.31374e-06
3.70332e-06
1.16311e-06
-1.30036e-06
-3.66327e-06
-5.9259e-06
-8.05129e-06
-1.00445e-05
-1.18677e-05
-1.35147e-05
-1.4956e-05
-1.61757e-05
-1.71461e-05
-1.78545e-05
-1.82692e-05
-1.83818e-05
-1.81603e-05
-1.75997e-05
-1.67066e-05
-1.54097e-05
-1.3837e-05
-1.17764e-05
-9.58205e-06
-6.70743e-06
-4.18109e-06
6.07328e-09
2.92091e-06
7.27547e-06
1.11951e-05
1.56728e-05
2.0151e-05
2.47447e-05
2.93746e-05
3.39886e-05
3.85471e-05
4.30087e-05
4.73452e-05
5.15207e-05
5.55089e-05
5.92997e-05
6.28594e-05
6.6201e-05
6.92923e-05
7.21505e-05
7.47579e-05
7.71282e-05
7.92567e-05
8.11529e-05
8.2818e-05
8.42631e-05
8.54929e-05
8.65168e-05
8.73428e-05
8.79793e-05
8.84345e-05
8.87172e-05
8.88346e-05
8.8795e-05
8.86054e-05
8.82725e-05
8.78039e-05
8.72042e-05
8.64807e-05
8.56374e-05
8.46811e-05
8.36148e-05
8.2444e-05
8.11729e-05
7.98041e-05
7.83424e-05
7.67905e-05
7.51512e-05
7.34282e-05
7.16233e-05
6.97401e-05
6.77809e-05
6.57478e-05
6.36442e-05
6.14719e-05
5.92337e-05
5.69326e-05
5.45707e-05
5.21514e-05
4.96779e-05
4.71523e-05
4.45799e-05
4.1963e-05
3.93057e-05
3.66135e-05
3.38893e-05
3.11401e-05
2.83702e-05
2.5587e-05
2.2796e-05
2.00046e-05
1.72213e-05
1.44529e-05
1.171e-05
9.00059e-06
6.33621e-06
3.72647e-06
1.1869e-06
-1.27603e-06
-3.63843e-06
-5.90068e-06
-8.02581e-06
-1.00189e-05
-1.18421e-05
-1.34893e-05
-1.49311e-05
-1.61513e-05
-1.71225e-05
-1.78318e-05
-1.82475e-05
-1.83613e-05
-1.8141e-05
-1.75819e-05
-1.66903e-05
-1.53949e-05
-1.38241e-05
-1.17651e-05
-9.57286e-06
-6.69923e-06
-4.17676e-06
7.70165e-09
2.91846e-06
7.27103e-06
1.11868e-05
1.56621e-05
2.01383e-05
2.47303e-05
2.9359e-05
3.3972e-05
3.85295e-05
4.29901e-05
4.73259e-05
5.15008e-05
5.54885e-05
5.92789e-05
6.28381e-05
6.61794e-05
6.92703e-05
7.21283e-05
7.47354e-05
7.71057e-05
7.92342e-05
8.11306e-05
8.27961e-05
8.42417e-05
8.5472e-05
8.64967e-05
8.73233e-05
8.79606e-05
8.84167e-05
8.87003e-05
8.88186e-05
8.878e-05
8.85913e-05
8.82594e-05
8.77918e-05
8.7193e-05
8.64704e-05
8.56281e-05
8.46728e-05
8.36074e-05
8.24376e-05
8.11674e-05
7.97996e-05
7.83388e-05
7.67879e-05
7.51495e-05
7.34274e-05
7.16235e-05
6.97412e-05
6.77829e-05
6.57507e-05
6.36481e-05
6.14768e-05
5.92396e-05
5.69394e-05
5.45785e-05
5.21602e-05
4.96877e-05
4.71632e-05
4.45917e-05
4.19758e-05
3.93195e-05
3.66284e-05
3.39052e-05
3.11571e-05
2.83881e-05
2.5606e-05
2.28159e-05
2.00255e-05
1.72431e-05
1.44756e-05
1.17336e-05
9.02498e-06
6.36135e-06
3.7523e-06
1.21334e-06
-1.24907e-06
-3.61102e-06
-5.87301e-06
-7.99799e-06
-9.9912e-06
-1.18147e-05
-1.34625e-05
-1.4905e-05
-1.61261e-05
-1.70984e-05
-1.78089e-05
-1.82259e-05
-1.83412e-05
-1.81225e-05
-1.75649e-05
-1.66751e-05
-1.53812e-05
-1.38125e-05
-1.17551e-05
-9.56515e-06
-6.69281e-06
-4.17544e-06
8.44919e-09
2.91385e-06
7.26407e-06
1.11758e-05
1.56483e-05
2.01225e-05
2.47128e-05
2.93403e-05
3.39522e-05
3.85088e-05
4.29686e-05
4.73037e-05
5.1478e-05
5.54653e-05
5.92554e-05
6.28143e-05
6.61551e-05
6.92457e-05
7.21032e-05
7.47101e-05
7.70802e-05
7.92087e-05
8.11054e-05
8.27712e-05
8.42173e-05
8.54482e-05
8.64736e-05
8.73011e-05
8.79393e-05
8.83964e-05
8.8681e-05
8.88004e-05
8.87629e-05
8.85753e-05
8.82445e-05
8.7778e-05
8.71804e-05
8.6459e-05
8.56178e-05
8.46636e-05
8.35994e-05
8.24307e-05
8.11616e-05
7.97949e-05
7.83353e-05
7.67855e-05
7.51482e-05
7.34272e-05
7.16244e-05
6.97432e-05
6.77861e-05
6.5755e-05
6.36536e-05
6.14834e-05
5.92474e-05
5.69484e-05
5.45886e-05
5.21716e-05
4.97002e-05
4.71769e-05
4.46067e-05
4.19921e-05
3.9337e-05
3.6647e-05
3.39251e-05
3.11781e-05
2.84104e-05
2.56294e-05
2.28405e-05
2.00512e-05
1.72698e-05
1.45033e-05
1.17622e-05
9.05449e-06
6.39167e-06
3.78333e-06
1.24501e-06
-1.2169e-06
-3.57845e-06
-5.84028e-06
-7.96525e-06
-9.95878e-06
-1.17829e-05
-1.34315e-05
-1.48751e-05
-1.60976e-05
-1.70713e-05
-1.77834e-05
-1.82022e-05
-1.83194e-05
-1.81026e-05
-1.7547e-05
-1.66593e-05
-1.53673e-05
-1.38009e-05
-1.17455e-05
-9.55791e-06
-6.68732e-06
-4.17632e-06
7.72441e-09
2.90659e-06
7.25403e-06
1.11617e-05
1.5631e-05
2.01032e-05
2.46916e-05
2.9318e-05
3.39289e-05
3.84847e-05
4.29437e-05
4.72781e-05
5.14521e-05
5.5439e-05
5.92289e-05
6.27874e-05
6.6128e-05
6.92181e-05
7.20753e-05
7.46819e-05
7.70518e-05
7.91803e-05
8.10772e-05
8.27434e-05
8.41901e-05
8.54218e-05
8.6448e-05
8.72765e-05
8.79157e-05
8.83739e-05
8.86597e-05
8.87803e-05
8.8744e-05
8.85577e-05
8.82282e-05
8.7763e-05
8.71667e-05
8.64466e-05
8.56067e-05
8.46539e-05
8.3591e-05
8.24236e-05
8.11558e-05
7.97905e-05
7.83322e-05
7.67836e-05
7.51477e-05
7.3428e-05
7.16265e-05
6.97466e-05
6.77908e-05
6.57611e-05
6.36609e-05
6.14922e-05
5.92574e-05
5.69598e-05
5.46014e-05
5.21858e-05
4.97158e-05
4.71939e-05
4.46251e-05
4.20118e-05
3.93581e-05
3.66695e-05
3.39489e-05
3.12033e-05
2.84369e-05
2.56572e-05
2.28695e-05
2.00814e-05
1.73012e-05
1.45358e-05
1.17957e-05
9.08893e-06
6.42694e-06
3.81931e-06
1.28158e-06
-1.1799e-06
-3.54111e-06
-5.80293e-06
-7.92806e-06
-9.92215e-06
-1.17471e-05
-1.33969e-05
-1.4842e-05
-1.60662e-05
-1.70418e-05
-1.77561e-05
-1.8177e-05
-1.82966e-05
-1.80821e-05
-1.75289e-05
-1.66436e-05
-1.53537e-05
-1.37898e-05
-1.17366e-05
-9.55163e-06
-6.68327e-06
-4.17987e-06
4.77465e-09
2.89607e-06
7.24024e-06
1.1144e-05
1.56097e-05
2.00801e-05
2.46666e-05
2.9292e-05
3.3902e-05
3.84569e-05
4.29153e-05
4.72493e-05
5.1423e-05
5.54098e-05
5.91996e-05
6.27579e-05
6.60983e-05
6.9188e-05
7.20449e-05
7.46513e-05
7.70211e-05
7.91497e-05
8.10468e-05
8.27136e-05
8.41609e-05
8.53934e-05
8.64206e-05
8.72501e-05
8.78906e-05
8.835e-05
8.86371e-05
8.87591e-05
8.87242e-05
8.85393e-05
8.82113e-05
8.77475e-05
8.71527e-05
8.64341e-05
8.55957e-05
8.46443e-05
8.35829e-05
8.2417e-05
8.11507e-05
7.97868e-05
7.833e-05
7.67829e-05
7.51484e-05
7.34301e-05
7.16301e-05
6.97517e-05
6.77974e-05
6.57691e-05
6.36705e-05
6.15032e-05
5.927e-05
5.69739e-05
5.46171e-05
5.22029e-05
4.97345e-05
4.72142e-05
4.46468e-05
4.20351e-05
3.93829e-05
3.66958e-05
3.39767e-05
3.12325e-05
2.84675e-05
2.56891e-05
2.29028e-05
2.01159e-05
1.73369e-05
1.45725e-05
1.18334e-05
9.12759e-06
6.46638e-06
3.85939e-06
1.32219e-06
-1.13897e-06
-3.5e-06
-5.76199e-06
-7.88749e-06
-9.8824e-06
-1.17085e-05
-1.33598e-05
-1.48068e-05
-1.60332e-05
-1.70111e-05
-1.77279e-05
-1.81515e-05
-1.82738e-05
-1.8062e-05
-1.75114e-05
-1.66288e-05
-1.53414e-05
-1.37803e-05
-1.17295e-05
-9.54717e-06
-6.68147e-06
-4.18677e-06
-1.18672e-09
2.88174e-06
7.22211e-06
1.11222e-05
1.55841e-05
2.00526e-05
2.46374e-05
2.92619e-05
3.38713e-05
3.84256e-05
4.28835e-05
4.72172e-05
5.13909e-05
5.53778e-05
5.91677e-05
6.2726e-05
6.60663e-05
6.91559e-05
7.20126e-05
7.46188e-05
7.69886e-05
7.91174e-05
8.10149e-05
8.26823e-05
8.41304e-05
8.53639e-05
8.63922e-05
8.72229e-05
8.78647e-05
8.83255e-05
8.8614e-05
8.87375e-05
8.87041e-05
8.85208e-05
8.81944e-05
8.77322e-05
8.7139e-05
8.6422e-05
8.55852e-05
8.46354e-05
8.35756e-05
8.24114e-05
8.11467e-05
7.97844e-05
7.83292e-05
7.67837e-05
7.51507e-05
7.34341e-05
7.16357e-05
6.97589e-05
6.78062e-05
6.57796e-05
6.36826e-05
6.15169e-05
5.92853e-05
5.69909e-05
5.46357e-05
5.22232e-05
4.97564e-05
4.72377e-05
4.4672e-05
4.20619e-05
3.94112e-05
3.67257e-05
3.40081e-05
3.12654e-05
2.85018e-05
2.57248e-05
2.29398e-05
2.01542e-05
1.73763e-05
1.4613e-05
1.18749e-05
9.16992e-06
6.5094e-06
3.90295e-06
1.36614e-06
-1.09484e-06
-3.45587e-06
-5.71826e-06
-7.84438e-06
-9.8404e-06
-1.1668e-05
-1.33213e-05
-1.47705e-05
-1.59996e-05
-1.69803e-05
-1.77e-05
-1.81266e-05
-1.82521e-05
-1.80433e-05
-1.74956e-05
-1.6616e-05
-1.53312e-05
-1.3773e-05
-1.1725e-05
-9.54528e-06
-6.68268e-06
-4.1976e-06
-1.09917e-08
2.86305e-06
7.19898e-06
1.10959e-05
1.55537e-05
2.00204e-05
2.46036e-05
2.92274e-05
3.38364e-05
3.83904e-05
4.28481e-05
4.71818e-05
5.13557e-05
5.5343e-05
5.91334e-05
6.26919e-05
6.60324e-05
6.9122e-05
7.19787e-05
7.4585e-05
7.69549e-05
7.9084e-05
8.09821e-05
8.26503e-05
8.40993e-05
8.53338e-05
8.63634e-05
8.71954e-05
8.78386e-05
8.8301e-05
8.85911e-05
8.87162e-05
8.86845e-05
8.85029e-05
8.81781e-05
8.77177e-05
8.71262e-05
8.64109e-05
8.55759e-05
8.46278e-05
8.35698e-05
8.24073e-05
8.11443e-05
7.97838e-05
7.83303e-05
7.67865e-05
7.51552e-05
7.34403e-05
7.16436e-05
6.97685e-05
6.78176e-05
6.57927e-05
6.36974e-05
6.15335e-05
5.93036e-05
5.7011e-05
5.46574e-05
5.22467e-05
4.97816e-05
4.72647e-05
4.47006e-05
4.20921e-05
3.94432e-05
3.67591e-05
3.40432e-05
3.1302e-05
2.85398e-05
2.57642e-05
2.29805e-05
2.0196e-05
1.74193e-05
1.4657e-05
1.19197e-05
9.21544e-06
6.55549e-06
3.94943e-06
1.41283e-06
-1.04816e-06
-3.40941e-06
-5.67243e-06
-7.79947e-06
-9.79692e-06
-1.16264e-05
-1.3282e-05
-1.47341e-05
-1.59662e-05
-1.69501e-05
-1.76732e-05
-1.81031e-05
-1.82321e-05
-1.80267e-05
-1.74823e-05
-1.66059e-05
-1.53239e-05
-1.37688e-05
-1.17238e-05
-9.54671e-06
-6.68759e-06
-4.2129e-06
-2.55242e-08
2.83951e-06
7.1703e-06
1.10646e-05
1.5518e-05
1.99831e-05
2.4565e-05
2.91882e-05
3.37972e-05
3.83512e-05
4.28091e-05
4.71431e-05
5.13176e-05
5.53057e-05
5.90968e-05
6.2656e-05
6.59969e-05
6.90868e-05
7.19437e-05
7.45502e-05
7.69204e-05
7.90502e-05
8.0949e-05
8.2618e-05
8.40682e-05
8.53039e-05
8.63349e-05
8.71684e-05
8.78132e-05
8.82772e-05
8.8569e-05
8.86958e-05
8.86659e-05
8.84861e-05
8.81632e-05
8.77046e-05
8.71149e-05
8.64015e-05
8.55683e-05
8.46221e-05
8.35659e-05
8.24053e-05
8.11441e-05
7.97855e-05
7.83337e-05
7.67916e-05
7.51622e-05
7.34491e-05
7.16542e-05
6.9781e-05
6.78318e-05
6.58087e-05
6.37153e-05
6.15532e-05
5.93251e-05
5.70343e-05
5.46826e-05
5.22736e-05
4.98103e-05
4.72951e-05
4.47327e-05
4.21259e-05
3.94786e-05
3.67962e-05
3.40817e-05
3.1342e-05
2.85813e-05
2.58069e-05
2.30244e-05
2.02411e-05
1.74654e-05
1.47039e-05
1.19674e-05
9.2637e-06
6.60414e-06
3.99829e-06
1.46169e-06
-9.99544e-07
-3.36128e-06
-5.62521e-06
-7.75349e-06
-9.75272e-06
-1.15845e-05
-1.32429e-05
-1.46983e-05
-1.59338e-05
-1.69213e-05
-1.76482e-05
-1.80819e-05
-1.82148e-05
-1.80131e-05
-1.74723e-05
-1.65993e-05
-1.53205e-05
-1.37684e-05
-1.17268e-05
-9.5522e-06
-6.69693e-06
-4.2332e-06
-4.5673e-08
2.8106e-06
7.13545e-06
1.10278e-05
1.54768e-05
1.99403e-05
2.45211e-05
2.91442e-05
3.37535e-05
3.83079e-05
4.27665e-05
4.71012e-05
5.12768e-05
5.5266e-05
5.90583e-05
6.26185e-05
6.59602e-05
6.90507e-05
7.19081e-05
7.45152e-05
7.6886e-05
7.90164e-05
8.09162e-05
8.25864e-05
8.40378e-05
8.52749e-05
8.63075e-05
8.71425e-05
8.77891e-05
8.82548e-05
8.85484e-05
8.86771e-05
8.86491e-05
8.84712e-05
8.81502e-05
8.76935e-05
8.71057e-05
8.63942e-05
8.5563e-05
8.46187e-05
8.35645e-05
8.24058e-05
8.11465e-05
7.97897e-05
7.83398e-05
7.67996e-05
7.51721e-05
7.34609e-05
7.16679e-05
6.97965e-05
6.78493e-05
6.58281e-05
6.37365e-05
6.15763e-05
5.93501e-05
5.70611e-05
5.47112e-05
5.2304e-05
4.98425e-05
4.73291e-05
4.47684e-05
4.21633e-05
3.95175e-05
3.68366e-05
3.41237e-05
3.13854e-05
2.8626e-05
2.58528e-05
2.30715e-05
2.02891e-05
1.75142e-05
1.47535e-05
1.20175e-05
9.31423e-06
6.65486e-06
4.04898e-06
1.51214e-06
-9.49598e-07
-3.31212e-06
-5.57727e-06
-7.70716e-06
-9.70865e-06
-1.15433e-05
-1.32049e-05
-1.46639e-05
-1.59033e-05
-1.68949e-05
-1.7626e-05
-1.80639e-05
-1.82011e-05
-1.80034e-05
-1.74665e-05
-1.65971e-05
-1.53217e-05
-1.37728e-05
-1.17348e-05
-9.56253e-06
-6.71142e-06
-4.25904e-06
-7.22599e-08
2.77586e-06
7.09394e-06
1.0985e-05
1.54295e-05
1.98917e-05
2.44719e-05
2.90952e-05
3.37053e-05
3.82604e-05
4.27203e-05
4.70564e-05
5.12335e-05
5.52243e-05
5.90183e-05
6.258e-05
6.59229e-05
6.90144e-05
7.18726e-05
7.44805e-05
7.68521e-05
7.89835e-05
8.08844e-05
8.25559e-05
8.40088e-05
8.52475e-05
8.62818e-05
8.71186e-05
8.77669e-05
8.82345e-05
8.85301e-05
8.86607e-05
8.86347e-05
8.84587e-05
8.81397e-05
8.7685e-05
8.70993e-05
8.63898e-05
8.55606e-05
8.46183e-05
8.3566e-05
8.24093e-05
8.11519e-05
7.97971e-05
7.83491e-05
7.68109e-05
7.51853e-05
7.3476e-05
7.1685e-05
6.98156e-05
6.78702e-05
6.58509e-05
6.37613e-05
6.16029e-05
5.93786e-05
5.70915e-05
5.47434e-05
5.23381e-05
4.98783e-05
4.73666e-05
4.48076e-05
4.22041e-05
3.956e-05
3.68805e-05
3.4169e-05
3.1432e-05
2.86738e-05
2.59017e-05
2.31213e-05
2.03398e-05
1.75656e-05
1.48053e-05
1.20697e-05
9.36658e-06
6.70714e-06
4.10098e-06
1.56359e-06
-8.98934e-07
-3.26259e-06
-5.52929e-06
-7.66133e-06
-9.66556e-06
-1.15034e-05
-1.31687e-05
-1.46317e-05
-1.58755e-05
-1.68716e-05
-1.76073e-05
-1.80499e-05
-1.81918e-05
-1.79985e-05
-1.74657e-05
-1.66001e-05
-1.53284e-05
-1.37826e-05
-1.17485e-05
-9.57846e-06
-6.73184e-06
-4.29092e-06
-1.0609e-07
2.73479e-06
7.04523e-06
1.09358e-05
1.53759e-05
1.98369e-05
2.4417e-05
2.9041e-05
3.36524e-05
3.82089e-05
4.26706e-05
4.70086e-05
5.11881e-05
5.51811e-05
5.89771e-05
6.25408e-05
6.58854e-05
6.89783e-05
7.18377e-05
7.44468e-05
7.68194e-05
7.89522e-05
8.08544e-05
8.25275e-05
8.3982e-05
8.52225e-05
8.62585e-05
8.70972e-05
8.77475e-05
8.82171e-05
8.85147e-05
8.86474e-05
8.86233e-05
8.84494e-05
8.81325e-05
8.76798e-05
8.70962e-05
8.63887e-05
8.55616e-05
8.46213e-05
8.35711e-05
8.24164e-05
8.11608e-05
7.9808e-05
7.8362e-05
7.68258e-05
7.52022e-05
7.34949e-05
7.17058e-05
6.98383e-05
6.7895e-05
6.58776e-05
6.37899e-05
6.16334e-05
5.9411e-05
5.71257e-05
5.47795e-05
5.23759e-05
4.99178e-05
4.74079e-05
4.48504e-05
4.22485e-05
3.96058e-05
3.69277e-05
3.42175e-05
3.14816e-05
2.87245e-05
2.59533e-05
2.31737e-05
2.03928e-05
1.7619e-05
1.48591e-05
1.21236e-05
9.42029e-06
6.7605e-06
4.15375e-06
1.6155e-06
-8.48154e-07
-3.21332e-06
-5.48206e-06
-7.6168e-06
-9.62412e-06
-1.14656e-05
-1.31349e-05
-1.46026e-05
-1.58512e-05
-1.68524e-05
-1.75932e-05
-1.80409e-05
-1.81877e-05
-1.79992e-05
-1.74708e-05
-1.66093e-05
-1.53415e-05
-1.37987e-05
-1.17689e-05
-9.60075e-06
-6.75895e-06
-4.32935e-06
-1.4792e-07
2.68692e-06
6.98891e-06
1.08798e-05
1.53155e-05
1.97758e-05
2.43564e-05
2.89815e-05
3.35948e-05
3.81535e-05
4.26176e-05
4.69582e-05
5.11407e-05
5.51367e-05
5.89354e-05
6.25016e-05
6.58483e-05
6.89432e-05
7.18041e-05
7.44147e-05
7.67888e-05
7.89231e-05
8.0827e-05
8.25018e-05
8.39582e-05
8.52005e-05
8.62386e-05
8.70792e-05
8.77316e-05
8.82033e-05
8.85029e-05
8.86377e-05
8.86158e-05
8.84439e-05
8.81291e-05
8.76785e-05
8.7097e-05
8.63916e-05
8.55665e-05
8.46283e-05
8.35801e-05
8.24273e-05
8.11738e-05
7.9823e-05
7.83789e-05
7.68448e-05
7.52231e-05
7.35178e-05
7.17307e-05
6.98652e-05
6.79238e-05
6.59084e-05
6.38225e-05
6.1668e-05
5.94474e-05
5.7164e-05
5.48195e-05
5.24177e-05
4.99612e-05
4.74529e-05
4.48969e-05
4.22964e-05
3.9655e-05
3.69782e-05
3.42691e-05
3.15342e-05
2.87779e-05
2.60074e-05
2.32284e-05
2.04478e-05
1.76743e-05
1.49143e-05
1.21786e-05
9.47492e-06
6.81445e-06
4.20676e-06
1.66727e-06
-7.97853e-07
-3.16501e-06
-5.43636e-06
-7.5743e-06
-9.58504e-06
-1.14306e-05
-1.31046e-05
-1.45773e-05
-1.58313e-05
-1.6838e-05
-1.75843e-05
-1.80376e-05
-1.81898e-05
-1.80064e-05
-1.74828e-05
-1.66253e-05
-1.53618e-05
-1.38219e-05
-1.17968e-05
-9.63018e-06
-6.79347e-06
-4.37486e-06
-1.98409e-07
2.63177e-06
6.92455e-06
1.08164e-05
1.52481e-05
1.9708e-05
2.42898e-05
2.89167e-05
3.35327e-05
3.80941e-05
4.25616e-05
4.69056e-05
5.10917e-05
5.50915e-05
5.88936e-05
6.2463e-05
6.58122e-05
6.89096e-05
7.17725e-05
7.43851e-05
7.67609e-05
7.88971e-05
8.08028e-05
8.24797e-05
8.3938e-05
8.51825e-05
8.62226e-05
8.70654e-05
8.77199e-05
8.81937e-05
8.84955e-05
8.86324e-05
8.86126e-05
8.84429e-05
8.81302e-05
8.76817e-05
8.71022e-05
8.63989e-05
8.5576e-05
8.46397e-05
8.35934e-05
8.24427e-05
8.11912e-05
7.98424e-05
7.84004e-05
7.68682e-05
7.52485e-05
7.35452e-05
7.17601e-05
6.98965e-05
6.7957e-05
6.59435e-05
6.38595e-05
6.17068e-05
5.9488e-05
5.72063e-05
5.48635e-05
5.24634e-05
5.00084e-05
4.75016e-05
4.4947e-05
4.23478e-05
3.97076e-05
3.70318e-05
3.43236e-05
3.15895e-05
2.88339e-05
2.60638e-05
2.32851e-05
2.05046e-05
1.7731e-05
1.49707e-05
1.22344e-05
9.52999e-06
6.86848e-06
4.25949e-06
1.71836e-06
-7.48647e-07
-3.11847e-06
-5.3929e-06
-7.53442e-06
-9.54906e-06
-1.13993e-05
-1.30784e-05
-1.45568e-05
-1.58166e-05
-1.68294e-05
-1.75817e-05
-1.8041e-05
-1.8199e-05
-1.8021e-05
-1.75024e-05
-1.66493e-05
-1.53902e-05
-1.38531e-05
-1.18328e-05
-9.66748e-06
-6.83612e-06
-4.42796e-06
-2.58119e-07
2.56884e-06
6.85179e-06
1.07455e-05
1.51735e-05
1.96335e-05
2.42172e-05
2.88466e-05
3.34661e-05
3.80312e-05
4.25028e-05
4.6851e-05
5.10417e-05
5.50461e-05
5.88524e-05
6.24256e-05
6.57779e-05
6.88783e-05
7.17436e-05
7.43586e-05
7.67366e-05
7.88749e-05
8.07828e-05
8.24619e-05
8.39224e-05
8.51691e-05
8.62115e-05
8.70565e-05
8.77132e-05
8.81892e-05
8.84932e-05
8.86322e-05
8.86146e-05
8.8447e-05
8.81364e-05
8.76899e-05
8.71126e-05
8.64114e-05
8.55904e-05
8.4656e-05
8.36118e-05
8.2463e-05
8.12135e-05
7.98667e-05
7.84267e-05
7.68964e-05
7.52787e-05
7.35773e-05
7.17941e-05
6.99325e-05
6.79948e-05
6.59832e-05
6.3901e-05
6.17501e-05
5.9533e-05
5.7253e-05
5.49118e-05
5.25131e-05
5.00596e-05
4.75542e-05
4.50008e-05
4.24027e-05
3.97635e-05
3.70885e-05
3.43811e-05
3.16475e-05
2.88922e-05
2.61223e-05
2.33435e-05
2.05629e-05
1.77888e-05
1.50278e-05
1.22907e-05
9.58507e-06
6.92211e-06
4.3114e-06
1.7682e-06
-7.01294e-07
-3.07437e-06
-5.35228e-06
-7.49786e-06
-9.51691e-06
-1.13724e-05
-1.30572e-05
-1.45417e-05
-1.5808e-05
-1.68274e-05
-1.75862e-05
-1.80519e-05
-1.8216e-05
-1.80439e-05
-1.75306e-05
-1.66818e-05
-1.54275e-05
-1.38931e-05
-1.18779e-05
-9.71338e-06
-6.88758e-06
-4.4892e-06
-3.2754e-07
2.49765e-06
6.77032e-06
1.06666e-05
1.50913e-05
1.95521e-05
2.41385e-05
2.87713e-05
3.33951e-05
3.79648e-05
4.24414e-05
4.67949e-05
5.09911e-05
5.50009e-05
5.88121e-05
6.23901e-05
6.57462e-05
6.88501e-05
7.17183e-05
7.43361e-05
7.67165e-05
7.88574e-05
8.07677e-05
8.24492e-05
8.39121e-05
8.51612e-05
8.6206e-05
8.70532e-05
8.77122e-05
8.81905e-05
8.84967e-05
8.86379e-05
8.86223e-05
8.84569e-05
8.81484e-05
8.77039e-05
8.71287e-05
8.64293e-05
8.56103e-05
8.46779e-05
8.36356e-05
8.24888e-05
8.12412e-05
7.98964e-05
7.84583e-05
7.69299e-05
7.53141e-05
7.36146e-05
7.18333e-05
6.99735e-05
6.80376e-05
6.60278e-05
6.39473e-05
6.1798e-05
5.95826e-05
5.73041e-05
5.49644e-05
5.25671e-05
5.01149e-05
4.76106e-05
4.50582e-05
4.2461e-05
3.98226e-05
3.71482e-05
3.44412e-05
3.17079e-05
2.89527e-05
2.61826e-05
2.34035e-05
2.06222e-05
1.78473e-05
1.50853e-05
1.23469e-05
9.63969e-06
6.97485e-06
4.36197e-06
1.81622e-06
-6.5647e-07
-3.03341e-06
-5.3151e-06
-7.46534e-06
-9.48932e-06
-1.13507e-05
-1.30416e-05
-1.4533e-05
-1.58062e-05
-1.68327e-05
-1.75985e-05
-1.80712e-05
-1.82418e-05
-1.80759e-05
-1.75681e-05
-1.67239e-05
-1.54745e-05
-1.39425e-05
-1.19327e-05
-9.76859e-06
-6.9485e-06
-4.55909e-06
-4.07033e-07
2.41767e-06
6.6798e-06
1.05793e-05
1.50014e-05
1.94636e-05
2.40537e-05
2.86908e-05
3.33198e-05
3.78952e-05
4.2378e-05
4.67376e-05
5.09403e-05
5.49565e-05
5.87736e-05
6.23571e-05
6.57176e-05
6.88256e-05
7.16972e-05
7.43183e-05
7.67016e-05
7.88453e-05
8.07583e-05
8.24425e-05
8.3908e-05
8.51595e-05
8.62068e-05
8.70564e-05
8.77178e-05
8.81983e-05
8.85067e-05
8.865e-05
8.86366e-05
8.84732e-05
8.81668e-05
8.77243e-05
8.71509e-05
8.64534e-05
8.56363e-05
8.47058e-05
8.36654e-05
8.25206e-05
8.12748e-05
7.99319e-05
7.84956e-05
7.69691e-05
7.53551e-05
7.36574e-05
7.18778e-05
7.00198e-05
6.80856e-05
6.60775e-05
6.39986e-05
6.18509e-05
5.9637e-05
5.73599e-05
5.50215e-05
5.26254e-05
5.01742e-05
4.7671e-05
4.51194e-05
4.25229e-05
3.9885e-05
3.72109e-05
3.45041e-05
3.17706e-05
2.90152e-05
2.62445e-05
2.34647e-05
2.06825e-05
1.79063e-05
1.51429e-05
1.24026e-05
9.69342e-06
7.02622e-06
4.41071e-06
1.86167e-06
-6.14799e-07
-2.99606e-06
-5.28201e-06
-7.43751e-06
-9.46698e-06
-1.13348e-05
-1.30325e-05
-1.45312e-05
-1.5812e-05
-1.68462e-05
-1.76195e-05
-1.80996e-05
-1.82771e-05
-1.81178e-05
-1.76159e-05
-1.67762e-05
-1.55319e-05
-1.40022e-05
-1.19979e-05
-9.83378e-06
-7.01951e-06
-4.63821e-06
-4.9693e-07
2.32841e-06
6.57998e-06
1.04835e-05
1.49036e-05
1.93681e-05
2.39627e-05
2.86051e-05
3.32405e-05
3.78226e-05
4.23126e-05
4.66796e-05
5.08898e-05
5.49134e-05
5.87372e-05
6.23271e-05
6.56929e-05
6.88058e-05
7.16813e-05
7.4306e-05
7.66926e-05
7.88395e-05
8.07554e-05
8.24426e-05
8.39108e-05
8.5165e-05
8.62149e-05
8.70669e-05
8.77306e-05
8.82134e-05
8.8524e-05
8.86694e-05
8.86581e-05
8.84967e-05
8.81922e-05
8.77514e-05
8.71799e-05
8.64843e-05
8.5669e-05
8.47404e-05
8.37018e-05
8.25588e-05
8.13148e-05
7.99737e-05
7.85391e-05
7.70143e-05
7.54021e-05
7.37061e-05
7.19282e-05
7.00717e-05
6.81392e-05
6.61326e-05
6.40552e-05
6.19089e-05
5.96963e-05
5.74204e-05
5.50832e-05
5.26881e-05
5.02378e-05
4.77353e-05
4.51843e-05
4.25882e-05
3.99505e-05
3.72764e-05
3.45694e-05
3.18355e-05
2.90795e-05
2.63079e-05
2.35269e-05
2.07433e-05
1.79655e-05
1.52001e-05
1.24576e-05
9.74584e-06
7.07579e-06
4.45713e-06
1.90397e-06
-5.76913e-07
-2.96285e-06
-5.25362e-06
-7.415e-06
-9.45054e-06
-1.13254e-05
-1.30305e-05
-1.45372e-05
-1.58261e-05
-1.68687e-05
-1.76499e-05
-1.8138e-05
-1.83228e-05
-1.81704e-05
-1.76746e-05
-1.68397e-05
-1.56006e-05
-1.4073e-05
-1.20742e-05
-9.90962e-06
-7.10123e-06
-4.7271e-06
-5.97518e-07
2.22934e-06
6.47053e-06
1.03788e-05
1.47976e-05
1.92653e-05
2.38656e-05
2.85143e-05
3.31573e-05
3.77473e-05
4.22458e-05
4.66213e-05
5.08402e-05
5.48723e-05
5.87038e-05
6.23011e-05
6.56728e-05
6.87913e-05
7.16713e-05
7.43003e-05
7.66905e-05
7.88408e-05
8.076e-05
8.24503e-05
8.39215e-05
8.51785e-05
8.6231e-05
8.70855e-05
8.77516e-05
8.82366e-05
8.85493e-05
8.86969e-05
8.86874e-05
8.85278e-05
8.82251e-05
8.77862e-05
8.72165e-05
8.65226e-05
8.57091e-05
8.47821e-05
8.37453e-05
8.26039e-05
8.13616e-05
8.00221e-05
7.85892e-05
7.7066e-05
7.54554e-05
7.3761e-05
7.19846e-05
7.01297e-05
6.81986e-05
6.61934e-05
6.41173e-05
6.19723e-05
5.97608e-05
5.7486e-05
5.51497e-05
5.27554e-05
5.03057e-05
4.78037e-05
4.5253e-05
4.26569e-05
4.00192e-05
3.73448e-05
3.46372e-05
3.19025e-05
2.91454e-05
2.63725e-05
2.35899e-05
2.08044e-05
1.80244e-05
1.52566e-05
1.25114e-05
9.79656e-06
7.12314e-06
4.50053e-06
1.94261e-06
-5.4315e-07
-2.93432e-06
-5.23048e-06
-7.39839e-06
-9.4406e-06
-1.13231e-05
-1.30363e-05
-1.45517e-05
-1.58493e-05
-1.69008e-05
-1.76906e-05
-1.8187e-05
-1.83796e-05
-1.82345e-05
-1.7745e-05
-1.69149e-05
-1.56813e-05
-1.41554e-05
-1.21624e-05
-9.99677e-06
-7.19426e-06
-4.82633e-06
-7.09128e-07
2.12e-06
6.35115e-06
1.02648e-05
1.46833e-05
1.91551e-05
2.37623e-05
2.84185e-05
3.30703e-05
3.76696e-05
4.21778e-05
4.6563e-05
5.07918e-05
5.48336e-05
5.86739e-05
6.22795e-05
6.5658e-05
6.87828e-05
7.16679e-05
7.43017e-05
7.6696e-05
7.88503e-05
8.0773e-05
8.24666e-05
8.39408e-05
8.52008e-05
8.62559e-05
8.7113e-05
8.77814e-05
8.82687e-05
8.85834e-05
8.87329e-05
8.87253e-05
8.85675e-05
8.82666e-05
8.78293e-05
8.72612e-05
8.65689e-05
8.57571e-05
8.48317e-05
8.37964e-05
8.26566e-05
8.14157e-05
8.00778e-05
7.86463e-05
7.71247e-05
7.55155e-05
7.38225e-05
7.20476e-05
7.0194e-05
6.82642e-05
6.62602e-05
6.41853e-05
6.20413e-05
5.98308e-05
5.75568e-05
5.52212e-05
5.28274e-05
5.03781e-05
4.78763e-05
4.53255e-05
4.27292e-05
4.00911e-05
3.74159e-05
3.47074e-05
3.19715e-05
2.92129e-05
2.64382e-05
2.36535e-05
2.08657e-05
1.8083e-05
1.53122e-05
1.25637e-05
9.84526e-06
7.16792e-06
4.54044e-06
1.97706e-06
-5.13891e-07
-2.91094e-06
-5.21308e-06
-7.38818e-06
-9.43768e-06
-1.13286e-05
-1.30505e-05
-1.45751e-05
-1.58821e-05
-1.69432e-05
-1.77421e-05
-1.82475e-05
-1.84482e-05
-1.83108e-05
-1.78279e-05
-1.70026e-05
-1.57746e-05
-1.42503e-05
-1.2263e-05
-1.00958e-05
-7.29917e-06
-4.93647e-06
-8.32153e-07
1.9999e-06
6.22147e-06
1.01414e-05
1.45604e-05
1.90375e-05
2.36527e-05
2.83178e-05
3.29797e-05
3.75896e-05
4.21089e-05
4.65053e-05
5.07453e-05
5.4798e-05
5.86482e-05
6.2263e-05
6.56492e-05
6.87812e-05
7.1672e-05
7.43111e-05
7.671e-05
7.88685e-05
8.0795e-05
8.24923e-05
8.39698e-05
8.52327e-05
8.62906e-05
8.71502e-05
8.7821e-05
8.83103e-05
8.86271e-05
8.87784e-05
8.87726e-05
8.86164e-05
8.83171e-05
8.78814e-05
8.73149e-05
8.6624e-05
8.58136e-05
8.48896e-05
8.38557e-05
8.27173e-05
8.14778e-05
8.01412e-05
7.87111e-05
7.71907e-05
7.55829e-05
7.38911e-05
7.21174e-05
7.0265e-05
6.83362e-05
6.63333e-05
6.42593e-05
6.21162e-05
5.99064e-05
5.7633e-05
5.52978e-05
5.29043e-05
5.0455e-05
4.79531e-05
4.5402e-05
4.28051e-05
4.01661e-05
3.74898e-05
3.478e-05
3.20424e-05
2.92819e-05
2.65048e-05
2.37176e-05
2.09269e-05
1.81409e-05
1.53666e-05
1.26142e-05
9.89167e-06
7.20959e-06
4.57653e-06
2.00712e-06
-4.89522e-07
-2.8931e-06
-5.20184e-06
-7.38479e-06
-9.44226e-06
-1.13422e-05
-1.30735e-05
-1.46081e-05
-1.59251e-05
-1.69965e-05
-1.78051e-05
-1.832e-05
-1.85293e-05
-1.84e-05
-1.7924e-05
-1.71037e-05
-1.58812e-05
-1.43584e-05
-1.23767e-05
-1.02075e-05
-7.41657e-06
-5.05806e-06
-9.67104e-07
1.86856e-06
6.08109e-06
1.00082e-05
1.44287e-05
1.89121e-05
2.35367e-05
2.8212e-05
3.28854e-05
3.75075e-05
4.20394e-05
4.64484e-05
5.0701e-05
5.4766e-05
5.86272e-05
6.22525e-05
6.56472e-05
6.87871e-05
7.16844e-05
7.43294e-05
7.67333e-05
7.88965e-05
8.08272e-05
8.25282e-05
8.40091e-05
8.52752e-05
8.63359e-05
8.7198e-05
8.78711e-05
8.83626e-05
8.86812e-05
8.88343e-05
8.88301e-05
8.86755e-05
8.83776e-05
8.79432e-05
8.73781e-05
8.66885e-05
8.58793e-05
8.49565e-05
8.39239e-05
8.27866e-05
8.15483e-05
8.02129e-05
7.87839e-05
7.72647e-05
7.56579e-05
7.39672e-05
7.21945e-05
7.0343e-05
6.84152e-05
6.64131e-05
6.43398e-05
6.21973e-05
5.9988e-05
5.77148e-05
5.53798e-05
5.29863e-05
5.05368e-05
4.80344e-05
4.54825e-05
4.28847e-05
4.02445e-05
3.75666e-05
3.4855e-05
3.21152e-05
2.93522e-05
2.65724e-05
2.3782e-05
2.09879e-05
1.81981e-05
1.54197e-05
1.26629e-05
9.9356e-06
7.24777e-06
4.60843e-06
2.03266e-06
-4.70334e-07
-2.88111e-06
-5.1971e-06
-7.3886e-06
-9.45472e-06
-1.13644e-05
-1.31059e-05
-1.46512e-05
-1.5979e-05
-1.70613e-05
-1.78801e-05
-1.84052e-05
-1.86235e-05
-1.85027e-05
-1.80339e-05
-1.72187e-05
-1.60019e-05
-1.44802e-05
-1.25042e-05
-1.03324e-05
-7.54709e-06
-5.19166e-06
-1.11462e-06
1.72551e-06
5.92954e-06
9.86471e-06
1.42877e-05
1.87788e-05
2.34141e-05
2.81011e-05
3.27876e-05
3.74234e-05
4.19695e-05
4.63926e-05
5.06593e-05
5.4738e-05
5.86115e-05
6.22484e-05
6.56527e-05
6.88013e-05
7.17059e-05
7.43574e-05
7.67669e-05
7.89352e-05
8.08703e-05
8.25754e-05
8.40599e-05
8.53292e-05
8.63928e-05
8.72575e-05
8.79328e-05
8.84263e-05
8.87467e-05
8.89014e-05
8.88987e-05
8.87454e-05
8.84488e-05
8.80156e-05
8.74515e-05
8.6763e-05
8.59549e-05
8.50331e-05
8.40014e-05
8.28651e-05
8.16278e-05
8.02934e-05
7.88653e-05
7.7347e-05
7.57411e-05
7.40512e-05
7.22793e-05
7.04286e-05
6.85014e-05
6.64999e-05
6.44271e-05
6.22849e-05
6.00758e-05
5.78026e-05
5.54675e-05
5.30736e-05
5.06235e-05
4.81202e-05
4.55673e-05
4.29681e-05
4.03262e-05
3.76464e-05
3.49325e-05
3.21901e-05
2.94241e-05
2.66409e-05
2.38469e-05
2.10487e-05
1.82546e-05
1.54715e-05
1.27096e-05
9.97679e-06
7.28235e-06
4.63605e-06
2.0535e-06
-4.56528e-07
-2.87517e-06
-5.1991e-06
-7.39988e-06
-9.47538e-06
-1.13956e-05
-1.31479e-05
-1.47047e-05
-1.60441e-05
-1.7138e-05
-1.79679e-05
-1.85037e-05
-1.87315e-05
-1.86197e-05
-1.81583e-05
-1.73483e-05
-1.61374e-05
-1.46166e-05
-1.26461e-05
-1.04713e-05
-7.69136e-06
-5.33784e-06
-1.27543e-06
1.57017e-06
5.76632e-06
9.71054e-06
1.41371e-05
1.86373e-05
2.32847e-05
2.7985e-05
3.26863e-05
3.73375e-05
4.18994e-05
4.63384e-05
5.06207e-05
5.47145e-05
5.86017e-05
6.22514e-05
6.56663e-05
6.88247e-05
7.17373e-05
7.4396e-05
7.68116e-05
7.89854e-05
8.09253e-05
8.26348e-05
8.41231e-05
8.53957e-05
8.64622e-05
8.73294e-05
8.80069e-05
8.85023e-05
8.88244e-05
8.89806e-05
8.89792e-05
8.8827e-05
8.85315e-05
8.80991e-05
8.7536e-05
8.68483e-05
8.6041e-05
8.51199e-05
8.40891e-05
8.29535e-05