/*--------------------------------*- C++ -*----------------------------------*\
| =========                 |                                                 |
| \\      /  F ield         | OpenFOAM: The Open Source CFD Toolbox           |
|  \\    /   O peration     | Version:  2306                                  |
|   \\  /    A nd           | Website:  www.openfoam.com                      |
|    \\/     M anipulation  |                                                 |
\*---------------------------------------------------------------------------*/
// * * * * * * * * * * * * * * * * * * * * * * * * * * * * * * * * * * * * * //
FoamFile
{
    version         2;
    format          ascii;
    class           volTensorField;
    location        "0";
    object          Q_S;
}

dimensions      [ 0 0 0 0 0 0 0 ];

internalField   nonuniform List<tensor> 
14751
(
(0.70718 0.707034 -3.91567e-26 -0.707034 0.70718 -6.83918e-26 -4.83503e-26 4.83603e-26 1)
(0.707157 0.707056 4.08844e-31 -0.707056 0.707157 -4.7762e-27 -3.37704e-27 3.37753e-27 1)
(0.707205 0.707008 -1.15433e-22 -0.707008 0.707205 -1.17769e-24 -8.11719e-25 8.11945e-25 1)
(0.707244 0.70697 -4.69179e-24 -0.70697 0.707244 1.14342e-24 8.09634e-25 -8.09948e-25 1)
(0.707278 0.706936 5.06618e-22 -0.706936 0.707278 -1.7244e-24 -1.3783e-24 1.37897e-24 1)
(0.707318 0.706895 1.61129e-23 -0.706895 0.707318 4.78427e-23 3.38135e-23 -3.38338e-23 1)
(0.707347 0.706866 5.99278e-24 -0.706866 0.707347 -3.69198e-25 -2.63584e-25 2.63763e-25 1)
(0.707377 0.706836 -2.01225e-25 -0.706836 0.707377 -5.76597e-25 -4.07461e-25 4.07773e-25 1)
(0.707403 0.70681 -1.26289e-21 -0.70681 0.707403 -9.44591e-25 1.615e-27 -1.61636e-27 1)
(0.707426 0.706788 7.94602e-23 -0.706788 0.707426 -5.06356e-25 -4.02897e-25 4.03261e-25 1)
(0.707445 0.706769 -6.02073e-26 -0.706769 0.707445 1.74763e-24 1.23521e-24 -1.23639e-24 1)
(0.707461 0.706753 1.47024e-23 -0.706753 0.707461 9.21711e-23 6.51331e-23 -6.51983e-23 1)
(0.707473 0.70674 2.19098e-27 -0.70674 0.707473 -1.83268e-24 -1.29523e-24 1.29658e-24 1)
(0.707481 0.706732 -1.58141e-24 -0.706732 0.707481 -4.43844e-24 -3.13576e-24 3.13908e-24 1)
(0.707486 0.706727 1.88877e-21 -0.706727 0.707486 -8.79942e-23 -6.34318e-23 6.34999e-23 1)
(0.707488 0.706725 2.73907e-22 -0.706725 0.707488 -4.29688e-23 -3.05476e-23 3.05806e-23 1)
(0.707488 0.706726 -2.48113e-21 -0.706726 0.707488 1.14105e-24 2.4331e-24 -2.43572e-24 1)
(0.707484 0.706729 -6.70228e-22 -0.706729 0.707484 -4.43948e-24 -2.70311e-24 2.706e-24 1)
(0.707479 0.706734 6.60475e-22 -0.706734 0.707479 -4.62734e-23 -3.31232e-23 3.31581e-23 1)
(0.707471 0.706742 -1.31717e-23 -0.706742 0.707471 -4.40746e-23 -3.11412e-23 3.11733e-23 1)
(0.707462 0.706751 3.76618e-22 -0.706751 0.707462 1.46329e-25 -1.23712e-25 1.23836e-25 1)
(0.707451 0.706762 -3.95519e-22 -0.706762 0.707451 -4.80548e-23 -3.37326e-23 3.37655e-23 1)
(0.707439 0.706774 2.45333e-24 -0.706774 0.707439 3.9757e-24 2.80855e-24 -2.81119e-24 1)
(0.707426 0.706787 -2.57892e-24 -0.706787 0.707426 -2.34099e-24 -1.6532e-24 1.65469e-24 1)
(0.707412 0.706801 2.5953e-24 -0.706801 0.707412 5.97113e-24 4.21907e-24 -4.22272e-24 1)
(0.707398 0.706816 3.31362e-23 -0.706816 0.707398 9.09045e-23 6.42366e-23 -6.42896e-23 1)
(0.707383 0.70683 2.98387e-21 -0.70683 0.707383 -7.39923e-25 -1.89065e-24 1.89213e-24 1)
(0.707368 0.706845 3.89054e-21 -0.706845 0.707368 2.51194e-23 1.60776e-23 -1.60895e-23 1)
(0.707353 0.706861 7.82366e-28 -0.706861 0.707353 -9.196e-25 -6.50029e-25 6.50482e-25 1)
(0.707337 0.706876 -1.53327e-21 -0.706876 0.707337 -8.15322e-25 5.24574e-28 -5.24916e-28 1)
(0.707322 0.706892 -1.97937e-21 -0.706892 0.707322 -9.7508e-25 6.77212e-28 -6.77624e-28 1)
(0.707306 0.706908 1.76278e-21 -0.706908 0.707306 8.00159e-25 -5.75707e-28 5.76032e-28 1)
(0.70729 0.706923 -3.7518e-29 -0.706923 0.70729 5.82971e-26 4.12116e-26 -4.1233e-26 1)
(0.707275 0.706938 -2.17892e-22 -0.706938 0.707275 1.04907e-24 7.99922e-25 -8.00304e-25 1)
(0.70726 0.706953 2.18607e-21 -0.706953 0.70726 1.40628e-24 4.66001e-25 -4.66204e-25 1)
(0.707246 0.706968 -3.06351e-22 -0.706968 0.707246 4.47472e-23 3.17011e-23 -3.17136e-23 1)
(0.707231 0.706982 8.82683e-23 -0.706982 0.707231 -5.0439e-23 -3.56764e-23 3.5689e-23 1)
(0.707217 0.706996 8.35853e-22 -0.706996 0.707217 -4.33725e-23 -3.08042e-23 3.08138e-23 1)
(0.707204 0.70701 -6.56412e-28 -0.70701 0.707204 1.84851e-24 1.30692e-24 -1.30728e-24 1)
(0.70719 0.707023 -4.24394e-30 -0.707023 0.70719 1.37538e-26 9.72427e-27 -9.72657e-27 1)
(0.707177 0.707036 -1.01618e-22 -0.707036 0.707177 2.71341e-25 2.01935e-25 -2.01976e-25 1)
(0.707164 0.70705 1.01391e-22 -0.70705 0.707164 -3.16346e-25 -2.31478e-25 2.31515e-25 1)
(0.707151 0.707063 -3.47988e-22 -0.707063 0.707151 -3.01241e-25 -1.94013e-25 1.94037e-25 1)
(0.707138 0.707076 -4.87372e-23 -0.707076 0.707138 3.18302e-25 2.2666e-25 -2.2668e-25 1)
(0.707125 0.707088 1.57451e-25 -0.707088 0.707125 1.30714e-25 9.24245e-26 -9.24293e-26 1)
(0.707113 0.707101 -1.57169e-25 -0.707101 0.707113 -1.59968e-25 -1.13115e-25 1.13117e-25 1)
(0.707101 0.707113 -7.5099e-26 -0.707113 0.707101 -8.37163e-25 -5.91971e-25 5.91961e-25 1)
(0.707089 0.707125 8.06669e-23 -0.707125 0.707089 -2.26748e-23 -1.60299e-23 1.60291e-23 1)
(0.707077 0.707136 5.30205e-29 -0.707136 0.707077 7.68028e-25 5.43101e-25 -5.43055e-25 1)
(0.707066 0.707148 1.72464e-26 -0.707148 0.707066 1.81548e-26 1.28397e-26 -1.28382e-26 1)
(0.707054 0.70716 9.94168e-24 -0.70716 0.707054 -2.23522e-26 -1.47344e-26 1.47322e-26 1)
(0.707043 0.707171 -9.95687e-24 -0.707171 0.707043 -3.39418e-26 -2.52674e-26 2.52628e-26 1)
(0.707031 0.707182 3.2145e-26 -0.707182 0.707031 4.13874e-26 2.92731e-26 -2.92669e-26 1)
(0.70702 0.707194 1.45227e-22 -0.707194 0.70702 6.52903e-25 4.85616e-25 -4.85497e-25 1)
(0.707009 0.707205 -2.72434e-22 -0.707205 0.707009 2.28824e-23 1.61327e-23 -1.61282e-23 1)
(0.706998 0.707216 -3.28931e-23 -0.707216 0.706998 -8.96028e-25 -6.40312e-25 6.40114e-25 1)
(0.706987 0.707227 2.56366e-22 -0.707227 0.706987 7.97218e-26 1.12738e-25 -1.12699e-25 1)
(0.706976 0.707238 3.10294e-23 -0.707238 0.706976 -1.48762e-26 -3.13516e-27 3.134e-27 1)
(0.706964 0.707249 -4.04332e-22 -0.707249 0.706964 1.46905e-25 1.41552e-28 -1.41495e-28 1)
(0.706953 0.70726 -5.58622e-23 -0.70726 0.706953 -1.77328e-24 -1.26955e-24 1.269e-24 1)
(0.706942 0.707271 3.15099e-23 -0.707271 0.706942 -9.43554e-23 -6.67256e-23 6.66945e-23 1)
(0.706931 0.707282 -8.32573e-23 -0.707282 0.706931 -1.79578e-22 -1.27038e-22 1.26975e-22 1)
(0.706921 0.707293 -3.06721e-25 -0.707293 0.706921 2.69925e-24 1.90906e-24 -1.90805e-24 1)
(0.706911 0.707303 7.9728e-23 -0.707303 0.706911 -6.3952e-25 -4.24738e-25 4.24503e-25 1)
(0.706901 0.707312 -7.9875e-23 -0.707312 0.706901 9.46934e-26 3.80177e-26 -3.79956e-26 1)
(0.706891 0.707322 7.05183e-24 -0.707322 0.706891 4.73314e-23 3.34812e-23 -3.34608e-23 1)
(0.706882 0.707332 -5.97097e-24 -0.707332 0.706882 -4.73287e-23 -3.34794e-23 3.34581e-23 1)
(0.706872 0.707341 4.41445e-28 -0.707341 0.706872 5.76541e-25 4.07811e-25 -4.07541e-25 1)
(0.706863 0.70735 3.13151e-25 -0.70735 0.706863 1.19123e-24 8.4275e-25 -8.4217e-25 1)
(0.706855 0.707359 3.53254e-22 -0.707359 0.706855 -1.42601e-24 -8.53098e-25 8.5249e-25 1)
(0.706847 0.707367 1.07967e-29 -0.707367 0.706847 1.26121e-26 8.92135e-27 -8.91479e-27 1)
(0.706839 0.707375 -5.71959e-23 -0.707375 0.706839 3.78114e-26 -4.89554e-30 4.89183e-30 1)
(0.706831 0.707382 5.69232e-23 -0.707382 0.706831 -3.86167e-26 4.42931e-30 -4.42586e-30 1)
(0.706825 0.707389 1.37289e-29 -0.707389 0.706825 1.46865e-26 1.03891e-26 -1.03808e-26 1)
(0.706819 0.707395 1.42542e-25 -0.707395 0.706819 5.68398e-24 4.02089e-24 -4.01761e-24 1)
(0.706813 0.7074 -6.80977e-26 -0.7074 0.706813 -2.40828e-24 -1.70366e-24 1.70224e-24 1)
(0.706808 0.707405 4.12572e-26 -0.707405 0.706808 -5.71086e-24 -4.03987e-24 4.03646e-24 1)
(0.706804 0.707409 -6.82421e-26 -0.707409 0.706804 4.75945e-24 3.36685e-24 -3.36397e-24 1)
(0.706801 0.707412 -1.23613e-22 -0.707412 0.706801 -5.56143e-24 -3.99992e-24 3.99646e-24 1)
(0.706798 0.707415 1.27686e-25 -0.707415 0.706798 -2.38255e-24 -1.68538e-24 1.68391e-24 1)
(0.706797 0.707416 -1.61018e-25 -0.707416 0.706797 5.68169e-24 4.01923e-24 -4.01572e-24 1)
(0.706797 0.707417 3.34718e-22 -0.707417 0.706797 -2.36414e-25 1.2482e-26 -1.2471e-26 1)
(0.706798 0.707415 -3.9367e-22 -0.707415 0.706798 3.12833e-25 1.09872e-26 -1.09776e-26 1)
(0.7068 0.707413 4.46661e-22 -0.707413 0.7068 -2.71955e-24 -1.68767e-24 1.68621e-24 1)
(0.706805 0.707409 -3.63257e-25 -0.707409 0.706805 2.32847e-24 1.64699e-24 -1.64558e-24 1)
(0.706811 0.707403 1.49366e-29 -0.707403 0.706811 1.51144e-26 1.0692e-26 -1.0683e-26 1)
(0.706819 0.707395 0 -0.707395 0.706819 0 0 0 1)
(0.706829 0.707384 5.80069e-22 -0.707384 0.706829 -3.87144e-25 8.66622e-28 -8.65941e-28 1)
(0.706842 0.707371 5.9153e-22 -0.707371 0.706842 2.46901e-25 4.40499e-25 -4.4017e-25 1)
(0.706857 0.707356 5.19609e-24 -0.707356 0.706857 -9.15849e-23 -6.4781e-23 6.47353e-23 1)
(0.706876 0.707337 -1.81106e-23 -0.707337 0.706876 -1.80044e-26 -1.9722e-26 1.97091e-26 1)
(0.706897 0.707316 1.79631e-23 -0.707316 0.706897 -8.29954e-27 3.76535e-28 -3.76312e-28 1)
(0.706921 0.707292 -2.10978e-24 -0.707292 0.706921 5.65184e-25 3.99112e-25 -3.98902e-25 1)
(0.70695 0.707264 2.03152e-24 -0.707264 0.70695 3.95296e-24 2.7963e-24 -2.79506e-24 1)
(0.706979 0.707235 4.56654e-22 -0.707235 0.706979 -2.3755e-24 -1.59066e-24 1.59008e-24 1)
(0.707013 0.7072 -1.29338e-23 -0.7072 0.707013 4.93298e-25 3.47045e-25 -3.46953e-25 1)
(0.707046 0.707167 3.07778e-22 -0.707167 0.707046 2.30132e-23 1.62943e-23 -1.62915e-23 1)
(0.707068 0.707146 2.42242e-26 -0.707146 0.707068 -1.43449e-25 -1.01438e-25 1.01427e-25 1)
(0.707066 0.707147 5.22021e-25 -0.707147 0.707066 -4.54947e-23 -3.21715e-23 3.21678e-23 1)
(0.707303 0.706911 3.283e-24 -0.706911 0.707303 -5.51933e-21 -3.90167e-21 3.90384e-21 1)
(0.707308 0.706906 6.55698e-24 -0.706906 0.707308 -1.50823e-23 -1.06644e-23 1.06704e-23 1)
(0.707443 0.70677 3.11583e-22 -0.70677 0.707443 -1.06937e-20 -7.55816e-21 7.56535e-21 1)
(0.70762 0.706594 1.90524e-21 -0.706594 0.70762 -2.17784e-22 -1.5589e-22 1.56116e-22 1)
(0.707741 0.706472 -1.42838e-21 -0.706472 0.707741 2.12732e-20 1.50308e-20 -1.50578e-20 1)
(0.707904 0.706309 7.17334e-23 -0.706309 0.707904 2.60585e-22 1.83934e-22 -1.8435e-22 1)
(0.708021 0.706192 6.88771e-25 -0.706192 0.708021 1.48865e-22 1.05126e-22 -1.05398e-22 1)
(0.708143 0.706069 1.49353e-24 -0.706069 0.708143 -1.67359e-22 -1.1817e-22 1.18517e-22 1)
(0.708251 0.705961 -9.40532e-21 -0.705961 0.708251 -2.28891e-20 -1.61359e-20 1.61883e-20 1)
(0.708346 0.705866 4.08955e-22 -0.705866 0.708346 1.36679e-21 9.63687e-22 -9.67073e-22 1)
(0.708429 0.705782 1.42248e-20 -0.705782 0.708429 3.95023e-23 -1.24278e-23 1.24744e-23 1)
(0.708499 0.705712 1.67408e-20 -0.705712 0.708499 -1.79526e-22 -1.76827e-22 1.77526e-22 1)
(0.708557 0.705653 -9.25043e-23 -0.705653 0.708557 3.27349e-24 2.59943e-24 -2.61013e-24 1)
(0.708601 0.705609 2.1584e-20 -0.705609 0.708601 3.58685e-22 1.83277e-22 -1.84054e-22 1)
(0.708633 0.705577 -2.83557e-20 -0.705577 0.708633 1.94347e-20 1.38066e-20 -1.38664e-20 1)
(0.708652 0.705558 1.59477e-21 -0.705558 0.708652 1.90661e-21 1.33986e-21 -1.34573e-21 1)
(0.708662 0.705548 -1.62931e-20 -0.705548 0.708662 -2.18843e-20 -1.53852e-20 1.54531e-20 1)
(0.708661 0.705549 -3.44068e-21 -0.705549 0.708661 -4.29372e-21 -3.01773e-21 3.03104e-21 1)
(0.708651 0.705559 2.83824e-22 -0.705559 0.708651 5.03512e-21 3.55162e-21 -3.56718e-21 1)
(0.708632 0.705578 -2.74867e-20 -0.705578 0.708632 -4.83839e-23 5.79986e-23 -5.82496e-23 1)
(0.708605 0.705606 2.89632e-20 -0.705606 0.708605 2.45843e-21 1.63914e-21 -1.64611e-21 1)
(0.708571 0.705639 3.2636e-24 -0.705639 0.708571 -2.35196e-21 -1.65964e-21 1.66654e-21 1)
(0.708531 0.70568 -7.48608e-24 -0.70568 0.708531 5.29948e-23 3.74209e-23 -3.75721e-23 1)
(0.708485 0.705725 7.16785e-24 -0.705725 0.708485 3.10328e-26 -2.03103e-29 2.03898e-29 1)
(0.708435 0.705776 1.74914e-20 -0.705776 0.708435 6.27926e-23 -7.33823e-24 7.36587e-24 1)
(0.70838 0.705831 -2.6317e-22 -0.705831 0.70838 1.93283e-22 1.37173e-22 -1.37668e-22 1)
(0.708324 0.705888 1.2512e-20 -0.705888 0.708324 2.04071e-20 1.4371e-20 -1.44206e-20 1)
(0.708264 0.705948 -1.02536e-20 -0.705948 0.708264 2.41625e-20 1.70841e-20 -1.71401e-20 1)
(0.708202 0.70601 1.89024e-20 -0.70601 0.708202 -7.77996e-22 -5.95848e-22 5.97698e-22 1)
(0.708139 0.706073 4.19266e-21 -0.706073 0.708139 -1.02648e-20 -7.25747e-21 7.2787e-21 1)
(0.708075 0.706138 5.25418e-21 -0.706138 0.708075 -1.19415e-20 -8.44383e-21 8.467e-21 1)
(0.70801 0.706203 -5.37554e-21 -0.706203 0.70801 1.15674e-20 8.17994e-21 -8.20087e-21 1)
(0.707945 0.706268 -2.07811e-20 -0.706268 0.707945 -3.72464e-22 -2.23334e-22 2.23864e-22 1)
(0.70788 0.706333 2.35452e-21 -0.706333 0.70788 -8.90588e-22 -6.33221e-22 6.34608e-22 1)
(0.707816 0.706397 -5.21208e-21 -0.706397 0.707816 1.38403e-20 9.78527e-21 -9.80492e-21 1)
(0.707752 0.706461 -1.50888e-21 -0.706461 0.707752 -2.35984e-21 -1.66488e-21 1.66793e-21 1)
(0.707689 0.706524 8.12696e-22 -0.706524 0.707689 9.6852e-22 6.83182e-22 -6.84308e-22 1)
(0.707626 0.706587 -1.30176e-21 -0.706587 0.707626 5.83644e-21 4.12554e-21 -4.13161e-21 1)
(0.707565 0.706648 4.61101e-25 -0.706648 0.707565 -1.45775e-22 -1.03012e-22 1.03146e-22 1)
(0.707505 0.706709 4.78383e-21 -0.706709 0.707505 -1.05927e-23 -1.20281e-23 1.20417e-23 1)
(0.707445 0.706768 5.40194e-22 -0.706768 0.707445 -6.18922e-22 -4.37876e-22 4.38295e-22 1)
(0.707386 0.706828 -5.40615e-22 -0.706828 0.707386 5.98239e-22 4.23223e-22 -4.23558e-22 1)
(0.707327 0.706887 9.92052e-22 -0.706887 0.707327 -2.59938e-21 -1.83802e-21 1.83916e-21 1)
(0.707269 0.706945 -2.38088e-23 -0.706945 0.707269 -2.62478e-22 -1.85547e-22 1.85632e-22 1)
(0.707211 0.707003 -2.22365e-21 -0.707003 0.707211 7.37663e-24 5.87774e-24 -5.87947e-24 1)
(0.707154 0.707059 1.35177e-22 -0.707059 0.707154 3.07517e-26 -1.35976e-27 1.35994e-27 1)
(0.707098 0.707116 -1.34391e-22 -0.707116 0.707098 1.68562e-23 1.19253e-23 -1.1925e-23 1)
(0.707043 0.707171 -9.17776e-23 -0.707171 0.707043 7.9739e-22 5.63883e-22 -5.63782e-22 1)
(0.706989 0.707225 4.42226e-22 -0.707225 0.706989 -1.70224e-23 -1.19501e-23 1.19461e-23 1)
(0.706935 0.707279 3.04881e-23 -0.707279 0.706935 1.68268e-24 1.19992e-24 -1.19934e-24 1)
(0.706881 0.707332 -4.87498e-22 -0.707332 0.706881 7.95631e-23 5.60621e-23 -5.60264e-23 1)
(0.706828 0.707385 -4.66755e-24 -0.707385 0.706828 -8.25334e-23 -5.83855e-23 5.83396e-23 1)
(0.706775 0.707438 1.0943e-22 -0.707438 0.706775 2.63795e-23 1.87364e-23 -1.87188e-23 1)
(0.706723 0.70749 -6.78901e-22 -0.70749 0.706723 1.41505e-21 1.00059e-21 -9.99505e-22 1)
(0.706671 0.707542 8.49276e-22 -0.707542 0.706671 -3.02696e-21 -2.14092e-21 2.13829e-21 1)
(0.706619 0.707594 3.33162e-21 -0.707594 0.706619 -2.36787e-22 -1.64105e-22 1.63879e-22 1)
(0.706568 0.707645 -4.53263e-22 -0.707645 0.706568 2.9359e-21 2.07706e-21 -2.07389e-21 1)
(0.706517 0.707696 -3.51436e-22 -0.707696 0.706517 2.11188e-22 1.49012e-22 -1.48764e-22 1)
(0.706465 0.707748 1.49154e-21 -0.707748 0.706465 -5.21457e-21 -3.68854e-21 3.68185e-21 1)
(0.706415 0.707798 -4.38542e-23 -0.707798 0.706415 -5.63378e-22 -3.98823e-22 3.98044e-22 1)
(0.706364 0.707848 4.96447e-21 -0.707848 0.706364 9.19225e-22 6.58665e-22 -6.57284e-22 1)
(0.706316 0.707897 -4.2769e-21 -0.707897 0.706316 -9.82525e-23 -7.69084e-23 7.67366e-23 1)
(0.706268 0.707945 -7.75693e-22 -0.707945 0.706268 1.57064e-23 9.70121e-24 -9.67822e-24 1)
(0.706221 0.707992 -3.33653e-21 -0.707992 0.706221 1.28614e-21 9.04126e-22 -9.01865e-22 1)
(0.706176 0.708037 -3.60141e-21 -0.708037 0.706176 -1.28337e-21 -9.16001e-22 9.13594e-22 1)
(0.706131 0.708081 -3.69012e-21 -0.708081 0.706131 -1.10391e-22 -8.60504e-23 8.58134e-23 1)
(0.706088 0.708124 7.79511e-22 -0.708124 0.706088 1.34443e-22 9.69431e-23 -9.66643e-23 1)
(0.706046 0.708166 -3.46449e-22 -0.708166 0.706046 -1.86512e-25 -9.37942e-25 9.35135e-25 1)
(0.706007 0.708205 4.64648e-21 -0.708205 0.706007 4.2784e-23 4.15166e-23 -4.13878e-23 1)
(0.705969 0.708242 -3.66619e-22 -0.708242 0.705969 1.15154e-20 8.15478e-21 -8.12861e-21 1)
(0.705934 0.708278 -8.62847e-22 -0.708278 0.705934 -6.29415e-23 -4.68039e-23 4.6649e-23 1)
(0.705901 0.708311 3.63459e-22 -0.708311 0.705901 -2.53589e-21 -1.79523e-21 1.78913e-21 1)
(0.705871 0.708341 -2.25388e-22 -0.708341 0.705871 2.52137e-21 1.78538e-21 -1.77915e-21 1)
(0.705843 0.708368 4.38703e-22 -0.708368 0.705843 -1.06458e-23 -6.32158e-24 6.29904e-24 1)
(0.705818 0.708393 -1.86059e-22 -0.708393 0.705818 -1.58541e-23 -1.17586e-23 1.17158e-23 1)
(0.705796 0.708415 1.94578e-25 -0.708415 0.705796 3.81869e-26 2.76132e-26 -2.75111e-26 1)
(0.705778 0.708433 2.26991e-22 -0.708433 0.705778 1.55793e-23 1.17006e-23 -1.16568e-23 1)
(0.705764 0.708447 4.73162e-22 -0.708447 0.705764 -2.11122e-23 -1.35584e-23 1.3507e-23 1)
(0.705753 0.708457 -9.88575e-22 -0.708457 0.705753 2.26285e-20 1.60284e-20 -1.59672e-20 1)
(0.705746 0.708465 -2.16222e-21 -0.708465 0.705746 2.73845e-23 1.29234e-23 -1.28738e-23 1)
(0.705746 0.708465 4.12164e-22 -0.708465 0.705746 3.27401e-23 2.44308e-23 -2.4337e-23 1)
(0.705749 0.708462 -1.26733e-21 -0.708462 0.705749 -2.25341e-20 -1.59683e-20 1.59072e-20 1)
(0.70576 0.708451 1.00019e-21 -0.708451 0.70576 2.24542e-20 1.59107e-20 -1.58503e-20 1)
(0.705776 0.708435 -5.88249e-21 -0.708435 0.705776 -2.23233e-20 -1.58319e-20 1.57725e-20 1)
(0.7058 0.708411 -5.55772e-21 -0.708411 0.7058 -4.28439e-23 -4.63911e-23 4.62201e-23 1)
(0.705832 0.708379 5.9304e-21 -0.708379 0.705832 -2.22959e-23 9.14424e-25 -9.11137e-25 1)
(0.705874 0.708338 9.77129e-25 -0.708338 0.705874 8.33515e-23 5.90437e-23 -5.88383e-23 1)
(0.705923 0.708289 -1.05055e-21 -0.708289 0.705923 -2.21945e-20 -1.57229e-20 1.56704e-20 1)
(0.705983 0.708229 -1.84264e-21 -0.708229 0.705983 -2.23359e-20 -1.58235e-20 1.57733e-20 1)
(0.706052 0.70816 5.92457e-21 -0.70816 0.706052 1.53897e-22 1.22892e-22 -1.22527e-22 1)
(0.706137 0.708075 6.23342e-21 -0.708075 0.706137 5.99418e-22 4.37938e-22 -4.36739e-22 1)
(0.706229 0.707984 -4.21597e-23 -0.707984 0.706229 -6.05449e-22 -4.28731e-22 4.27668e-22 1)
(0.706331 0.707881 5.54671e-21 -0.707881 0.706331 6.19145e-23 5.35158e-23 -5.33986e-23 1)
(0.706446 0.707767 1.59187e-24 -0.707767 0.706446 -2.99913e-23 -2.12245e-23 2.11849e-23 1)
(0.706569 0.707644 -1.1523e-21 -0.707644 0.706569 -2.27945e-20 -1.61318e-20 1.61073e-20 1)
(0.706697 0.707516 6.42585e-23 -0.707516 0.706697 5.88603e-22 4.16509e-22 -4.16027e-22 1)
(0.70684 0.707374 -7.35057e-22 -0.707374 0.70684 -2.22293e-20 -1.57249e-20 1.5713e-20 1)
(0.706903 0.707311 -1.04435e-23 -0.707311 0.706903 -4.09553e-23 -2.8974e-23 2.89573e-23 1)
(0.706969 0.707244 -9.88092e-24 -0.707244 0.706969 1.2723e-22 8.99794e-23 -8.99445e-23 1)
(0.70729 0.706924 -9.35015e-24 -0.706924 0.70729 2.15832e-20 1.52577e-20 -1.52656e-20 1)
(0.707365 0.706848 1.50888e-25 -0.706848 0.707365 4.56114e-22 3.22404e-22 -3.22639e-22 1)
(0.707595 0.706618 -2.09067e-21 -0.706618 0.707595 1.29623e-20 9.16138e-21 -9.17405e-21 1)
(0.707909 0.706304 -1.97534e-21 -0.706304 0.707909 6.19452e-20 4.37554e-20 -4.38548e-20 1)
(0.708132 0.70608 -1.69869e-21 -0.70608 0.708132 -2.82787e-20 -1.99635e-20 2.00216e-20 1)
(0.708412 0.705799 1.4036e-20 -0.705799 0.708412 1.86816e-21 1.28168e-21 -1.28642e-21 1)
(0.70863 0.705581 -1.95789e-23 -0.705581 0.70863 -5.49091e-24 -3.81438e-24 3.83087e-24 1)
(0.708852 0.705358 5.24952e-24 -0.705358 0.708852 -5.30699e-22 -3.74351e-22 3.76206e-22 1)
(0.709052 0.705156 4.0204e-20 -0.705156 0.709052 -9.95403e-20 -7.03483e-20 7.07371e-20 1)
(0.709232 0.704975 6.45209e-22 -0.704975 0.709232 4.82543e-21 3.39906e-21 -3.41959e-21 1)
(0.709392 0.704814 1.41188e-20 -0.704814 0.709392 1.14347e-19 8.05285e-20 -8.10516e-20 1)
(0.709531 0.704674 -1.67093e-20 -0.704674 0.709531 1.18954e-19 8.39049e-20 -8.44831e-20 1)
(0.709648 0.704556 3.93273e-20 -0.704556 0.709648 6.1197e-22 2.3112e-22 -2.3279e-22 1)
(0.709742 0.704461 -1.97072e-20 -0.704461 0.709742 1.24345e-19 8.77004e-20 -8.83578e-20 1)
(0.709814 0.704389 1.45399e-20 -0.704389 0.709814 -1.51011e-19 -1.06449e-19 1.07269e-19 1)
(0.709864 0.704339 -4.90746e-20 -0.704339 0.709864 7.31201e-21 5.42067e-21 -5.4632e-21 1)
(0.709896 0.704307 3.29053e-20 -0.704307 0.709896 -8.15678e-20 -5.76321e-20 5.80894e-20 1)
(0.709908 0.704295 -5.56863e-20 -0.704295 0.709908 -1.30459e-20 -8.87657e-21 8.94731e-21 1)
(0.709901 0.704301 1.2259e-21 -0.704301 0.709901 -1.4807e-21 -1.0497e-21 1.05805e-21 1)
(0.70988 0.704322 3.14758e-20 -0.704322 0.70988 -1.09838e-19 -7.75354e-20 7.81472e-20 1)
(0.709842 0.704361 -3.79304e-20 -0.704361 0.709842 1.13179e-19 7.99257e-20 -8.05476e-20 1)
(0.709792 0.704411 5.21339e-21 -0.704411 0.709792 -1.80538e-21 -1.29966e-21 1.30959e-21 1)
(0.709729 0.704475 -4.206e-21 -0.704475 0.709729 -2.93326e-23 1.33102e-24 -1.34094e-24 1)
(0.709656 0.704549 4.21857e-21 -0.704549 0.709656 1.12552e-21 7.71544e-22 -7.77137e-22 1)
(0.709572 0.704633 -1.15863e-20 -0.704633 0.709572 5.91395e-20 4.17286e-20 -4.20211e-20 1)
(0.709481 0.704724 -4.27335e-21 -0.704724 0.709481 -4.37064e-22 -2.87786e-22 2.89728e-22 1)
(0.709385 0.704821 -2.97397e-20 -0.704821 0.709385 4.12326e-20 2.91966e-20 -2.93857e-20 1)
(0.709282 0.704925 2.27918e-20 -0.704925 0.709282 -3.00081e-20 -2.12522e-20 2.13836e-20 1)
(0.709175 0.705032 -1.70269e-20 -0.705032 0.709175 6.02617e-20 4.25566e-20 -4.28067e-20 1)
(0.709065 0.705143 -2.99747e-20 -0.705143 0.709065 1.09176e-20 7.81538e-21 -7.85885e-21 1)
(0.708953 0.705256 4.83899e-20 -0.705256 0.708953 1.48308e-20 1.02816e-20 -1.03355e-20 1)
(0.708839 0.705371 -9.17548e-21 -0.705371 0.708839 -1.71003e-20 -1.20304e-20 1.20895e-20 1)
(0.708724 0.705486 1.72081e-20 -0.705486 0.708724 -6.2176e-20 -4.39197e-20 4.41212e-20 1)
(0.708609 0.705602 1.02444e-21 -0.705602 0.708609 7.73827e-21 5.45707e-21 -5.48033e-21 1)
(0.708494 0.705717 1.11063e-20 -0.705717 0.708494 -1.55652e-20 -1.10153e-20 1.10586e-20 1)
(0.708379 0.705832 2.31368e-21 -0.705832 0.708379 -2.9301e-21 -2.07401e-21 2.0815e-21 1)
(0.708266 0.705945 -4.16011e-22 -0.705945 0.708266 1.67165e-21 1.18105e-21 -1.18493e-21 1)
(0.708154 0.706058 1.34894e-20 -0.706058 0.708154 -4.30043e-21 -3.06442e-21 3.07352e-21 1)
(0.708043 0.706169 2.02592e-20 -0.706169 0.708043 4.78693e-22 3.00356e-22 -3.01153e-22 1)
(0.707932 0.706281 -1.36012e-20 -0.706281 0.707932 1.49369e-20 1.0572e-20 -1.05967e-20 1)
(0.707823 0.70639 -1.44825e-22 -0.70639 0.707823 1.34686e-21 9.51613e-22 -9.53544e-22 1)
(0.707715 0.706498 1.46054e-22 -0.706498 0.707715 -1.66745e-21 -1.17823e-21 1.18026e-21 1)
(0.707608 0.706606 1.38139e-21 -0.706606 0.707608 3.05045e-21 2.15409e-21 -2.15715e-21 1)
(0.707502 0.706711 1.76381e-22 -0.706711 0.707502 -2.18784e-22 -1.54755e-22 1.54929e-22 1)
(0.707396 0.706817 1.91524e-21 -0.706817 0.707396 -7.47261e-21 -5.28286e-21 5.2872e-21 1)
(0.707292 0.706921 1.62108e-23 -0.706921 0.707292 5.6176e-22 3.97114e-22 -3.97323e-22 1)
(0.707189 0.707025 -4.19906e-21 -0.707025 0.707189 -4.48502e-22 -3.16434e-22 3.16508e-22 1)
(0.707088 0.707126 -3.82521e-22 -0.707126 0.707088 -5.03626e-22 -3.56144e-22 3.56125e-22 1)
(0.706987 0.707226 -4.41274e-22 -0.707226 0.706987 1.67444e-21 1.1841e-21 -1.1837e-21 1)
(0.706888 0.707326 -1.12738e-23 -0.707326 0.706888 5.13273e-23 3.63001e-23 -3.62777e-23 1)
(0.706789 0.707425 4.84401e-22 -0.707425 0.706789 -1.92868e-21 -1.36409e-21 1.36286e-21 1)
(0.70669 0.707523 -3.0134e-22 -0.707523 0.70669 3.92359e-23 2.75088e-23 -2.74764e-23 1)
(0.706592 0.707621 2.35566e-22 -0.707621 0.706592 3.78052e-22 2.6776e-22 -2.67371e-22 1)
(0.706495 0.707718 -6.19052e-22 -0.707718 0.706495 -2.72702e-21 -1.93072e-21 1.92738e-21 1)
(0.706398 0.707815 1.56451e-21 -0.707815 0.706398 4.12866e-21 2.92455e-21 -2.91869e-21 1)
(0.706301 0.707911 -3.29812e-21 -0.707911 0.706301 1.57301e-20 1.11302e-20 -1.11049e-20 1)
(0.706205 0.708007 -6.21781e-22 -0.708007 0.706205 -2.39319e-21 -1.69552e-21 1.6912e-21 1)
(0.70611 0.708102 -1.59328e-22 -0.708102 0.70611 -1.55191e-21 -1.09923e-21 1.09614e-21 1)
(0.706015 0.708197 6.33302e-21 -0.708197 0.706015 7.73068e-21 5.48865e-21 -5.47174e-21 1)
(0.705922 0.70829 5.23958e-21 -0.70829 0.705922 1.94902e-22 1.50441e-22 -1.49938e-22 1)
(0.705828 0.708383 -3.70615e-21 -0.708383 0.705828 2.96113e-20 2.09667e-20 -2.0891e-20 1)
(0.705737 0.708474 3.23627e-21 -0.708474 0.705737 -3.02163e-20 -2.13986e-20 2.1316e-20 1)
(0.705648 0.708562 -8.27206e-21 -0.708562 0.705648 -4.9959e-21 -3.56398e-21 3.54932e-21 1)
(0.70556 0.70865 3.50383e-21 -0.70865 0.70556 -2.66408e-20 -1.88682e-20 1.8786e-20 1)
(0.705476 0.708734 3.23613e-21 -0.708734 0.705476 -2.98411e-20 -2.11389e-20 2.10417e-20 1)
(0.705393 0.708816 1.89749e-21 -0.708816 0.705393 -3.29263e-20 -2.33322e-20 2.32195e-20 1)
(0.705313 0.708896 8.42833e-22 -0.708896 0.705313 6.9719e-21 4.94537e-21 -4.92038e-21 1)
(0.705236 0.708972 -6.60364e-22 -0.708972 0.705236 -3.1132e-21 -2.20964e-21 2.19799e-21 1)
(0.705164 0.709044 6.49092e-21 -0.709044 0.705164 5.94165e-20 4.21541e-20 -4.19234e-20 1)
(0.705094 0.709114 -9.7912e-21 -0.709114 0.705094 -5.44672e-21 -3.90166e-21 3.87955e-21 1)
(0.705029 0.709178 -5.52065e-22 -0.709178 0.705029 -1.34435e-20 -9.53615e-21 9.48036e-21 1)
(0.704968 0.709239 6.6318e-22 -0.709239 0.704968 6.74674e-21 4.78788e-21 -4.75905e-21 1)
(0.704913 0.709294 -7.61379e-22 -0.709294 0.704913 -6.77537e-21 -4.80906e-21 4.77936e-21 1)
(0.704862 0.709344 6.16708e-22 -0.709344 0.704862 1.34892e-20 9.57127e-21 -9.51079e-21 1)
(0.704816 0.70939 -2.96224e-22 -0.70939 0.704816 -6.72969e-21 -4.77533e-21 4.74454e-21 1)
(0.704777 0.709429 2.383e-22 -0.709429 0.704777 2.39382e-23 1.80904e-23 -1.79718e-23 1)
(0.704744 0.709462 -3.36583e-22 -0.709462 0.704744 5.93597e-20 4.21119e-20 -4.18318e-20 1)
(0.704717 0.709488 -1.41474e-21 -0.709488 0.704717 -1.18748e-19 -8.42572e-20 8.36906e-20 1)
(0.704697 0.709508 4.68087e-21 -0.709508 0.704697 9.46731e-20 6.71938e-20 -6.67383e-20 1)
(0.704684 0.709521 2.59169e-21 -0.709521 0.704684 1.18848e-19 8.43376e-20 -8.37626e-20 1)
(0.704682 0.709523 5.71204e-21 -0.709523 0.704682 -1.35799e-20 -9.60759e-21 9.54204e-21 1)
(0.704688 0.709517 6.10595e-21 -0.709517 0.704688 3.73567e-20 2.65347e-20 -2.63541e-20 1)
(0.704705 0.709501 -7.09921e-21 -0.709501 0.704705 -2.41814e-20 -1.71907e-20 1.70745e-20 1)
(0.704733 0.709473 3.50563e-21 -0.709473 0.704733 1.42765e-19 1.01305e-19 -1.00628e-19 1)
(0.704774 0.709432 -4.96107e-21 -0.709432 0.704774 1.2692e-19 9.00179e-20 -8.94267e-20 1)
(0.704829 0.709377 -5.75793e-21 -0.709377 0.704829 -1.25949e-19 -8.93716e-20 8.87986e-20 1)
(0.7049 0.709307 1.17475e-20 -0.709307 0.7049 -4.75249e-22 -2.85296e-22 2.83523e-22 1)
(0.704985 0.709222 1.02488e-20 -0.709222 0.704985 1.71456e-20 1.22035e-20 -1.21306e-20 1)
(0.705089 0.709119 -1.55032e-21 -0.709119 0.705089 3.14644e-20 2.23058e-20 -2.2179e-20 1)
(0.705209 0.709 -7.02828e-21 -0.709 0.705209 -1.16568e-19 -8.26732e-20 8.22311e-20 1)
(0.705352 0.708857 -5.74472e-21 -0.708857 0.705352 -1.24549e-19 -8.83077e-20 8.78711e-20 1)
(0.70551 0.7087 -6.01187e-23 -0.7087 0.70551 8.29654e-22 5.87784e-22 -5.85137e-22 1)
(0.705685 0.708525 -1.67697e-20 -0.708525 0.705685 -1.22255e-19 -8.66685e-20 8.63211e-20 1)
(0.705877 0.708334 5.64356e-23 -0.708334 0.705877 -3.77062e-22 -2.66947e-22 2.66021e-22 1)
(0.706085 0.708127 -1.57995e-21 -0.708127 0.706085 2.64564e-20 1.87313e-20 -1.86773e-20 1)
(0.706295 0.707918 -1.30559e-23 -0.707918 0.706295 -1.71743e-21 -1.21582e-21 1.21304e-21 1)
(0.706526 0.707687 -9.67466e-22 -0.707687 0.706526 2.4399e-20 1.72658e-20 -1.72375e-20 1)
(0.706647 0.707566 -6.08795e-26 -0.707566 0.706647 4.79413e-22 3.39216e-22 -3.38776e-22 1)
(0.70682 0.707393 6.31429e-24 -0.707393 0.70682 4.80635e-22 3.40001e-22 -3.39726e-22 1)
(0.707328 0.706885 8.71649e-24 -0.706885 0.707328 -1.71817e-20 -1.21455e-20 1.21531e-20 1)
(0.707531 0.706683 5.15445e-24 -0.706683 0.707531 -1.42154e-22 -1.00463e-22 1.00583e-22 1)
(0.707846 0.706367 -2.83802e-22 -0.706367 0.707846 -1.60984e-19 -1.13713e-19 1.13951e-19 1)
(0.708308 0.705904 -2.42938e-21 -0.705904 0.708308 -7.08394e-20 -4.99999e-20 5.01702e-20 1)
(0.708637 0.705574 -9.15908e-21 -0.705574 0.708637 9.24264e-22 6.80108e-22 -6.83061e-22 1)
(0.70903 0.705179 -1.5166e-20 -0.705179 0.70903 3.21984e-19 2.27115e-19 -2.28355e-19 1)
(0.709356 0.704851 4.34871e-24 -0.704851 0.709356 -8.43247e-22 -5.94383e-22 5.98182e-22 1)
(0.709678 0.704526 -3.02324e-23 -0.704526 0.709678 2.19616e-21 1.54741e-21 -1.55872e-21 1)
(0.709972 0.70423 -1.34027e-20 -0.70423 0.709972 4.52532e-19 3.18763e-19 -3.21362e-19 1)
(0.710236 0.703964 -3.00126e-20 -0.703964 0.710236 7.5257e-21 5.48517e-21 -5.53405e-21 1)
(0.710473 0.703724 -5.04818e-20 -0.703724 0.710473 1.61089e-19 1.13701e-19 -1.14792e-19 1)
(0.710678 0.703518 -2.25997e-20 -0.703518 0.710678 -1.32549e-19 -9.30896e-20 9.4037e-20 1)
(0.710852 0.703342 -7.84531e-20 -0.703342 0.710852 3.2207e-19 2.27111e-19 -2.29536e-19 1)
(0.710992 0.7032 -2.89921e-20 -0.7032 0.710992 -1.3462e-19 -9.444e-20 9.54866e-20 1)
(0.7111 0.703091 -7.13094e-21 -0.703091 0.7111 1.30998e-19 9.21603e-20 -9.32101e-20 1)
(0.711177 0.703013 4.6674e-20 -0.703013 0.711177 -3.10723e-19 -2.18821e-19 2.21361e-19 1)
(0.711224 0.702966 6.7232e-20 -0.702966 0.711224 1.32191e-19 9.23752e-20 -9.34603e-20 1)
(0.711243 0.702946 6.50966e-20 -0.702946 0.711243 -3.28651e-19 -2.3156e-19 2.34293e-19 1)
(0.711234 0.702955 5.80922e-20 -0.702955 0.711234 2.49068e-20 1.70313e-20 -1.72319e-20 1)
(0.711204 0.702986 3.77684e-20 -0.702986 0.711204 1.46414e-19 1.02619e-19 -1.03818e-19 1)
(0.711148 0.703042 2.38194e-20 -0.703042 0.711148 -1.68355e-19 -1.18552e-19 1.19919e-19 1)
(0.711074 0.703117 8.84991e-23 -0.703117 0.711074 2.04141e-20 1.43528e-20 -1.45152e-20 1)
(0.71098 0.703212 -6.78434e-20 -0.703212 0.71098 -1.84047e-20 -1.24197e-20 1.25569e-20 1)
(0.710872 0.703321 -6.92867e-20 -0.703321 0.710872 1.66391e-20 1.22216e-20 -1.23528e-20 1)
(0.710749 0.703446 -1.89824e-20 -0.703446 0.710749 -4.7929e-20 -3.3578e-20 3.39265e-20 1)
(0.710614 0.703582 -1.85609e-22 -0.703582 0.710614 -1.83644e-20 -1.29196e-20 1.30487e-20 1)