/*--------------------------------*- C++ -*----------------------------------*\
| =========                 |                                                 |
| \\      /  F ield         | OpenFOAM: The Open Source CFD Toolbox           |
|  \\    /   O peration     | Version:  2306                                  |
|   \\  /    A nd           | Website:  www.openfoam.com                      |
|    \\/     M anipulation  |                                                 |
\*---------------------------------------------------------------------------*/
// * * * * * * * * * * * * * * * * * * * * * * * * * * * * * * * * * * * * * //
FoamFile
{
    version         2;
    format          ascii;
    class           volSymmTensorField;
    location        "0";
    object          Rdns;
}

dimensions      [ 0 2 -2 0 0 0 0 ];

internalField   nonuniform List<symmTensor> 
14751
(
(9.01439e-07 1.80891e-08 0 2.12725e-09 0 2.64492e-07)
(9.01658e-07 1.83743e-08 0 2.16988e-09 0 2.68506e-07)
(9.02098e-07 1.86672e-08 0 2.21243e-09 0 2.72657e-07)
(9.01952e-07 1.89355e-08 0 2.24283e-09 0 2.76448e-07)
(9.01388e-07 1.91606e-08 0 2.26808e-09 0 2.79925e-07)
(9.01e-07 1.9396e-08 0 2.30173e-09 0 2.8338e-07)
(9.01403e-07 1.96834e-08 0 2.35527e-09 0 2.87134e-07)
(9.02312e-07 1.99569e-08 0 2.41645e-09 0 2.90886e-07)
(9.03378e-07 2.02335e-08 0 2.47717e-09 0 2.94586e-07)
(9.04686e-07 2.04857e-08 0 2.52276e-09 0 2.98316e-07)
(9.05435e-07 2.07748e-08 0 2.57854e-09 0 3.01917e-07)
(9.0594e-07 2.09697e-08 0 2.63401e-09 0 3.04924e-07)
(9.06976e-07 2.11193e-08 0 2.6881e-09 0 3.0788e-07)
(9.08121e-07 2.13312e-08 0 2.75774e-09 0 3.11099e-07)
(9.09641e-07 2.1502e-08 0 2.8243e-09 0 3.14416e-07)
(9.12202e-07 2.17152e-08 0 2.89277e-09 0 3.17892e-07)
(9.15155e-07 2.19057e-08 0 2.95852e-09 0 3.21032e-07)
(9.18279e-07 2.21437e-08 0 3.03926e-09 0 3.23677e-07)
(9.214e-07 2.23933e-08 0 3.12141e-09 0 3.26119e-07)
(9.23631e-07 2.25604e-08 0 3.18974e-09 0 3.28667e-07)
(9.26154e-07 2.26575e-08 0 3.26205e-09 0 3.3123e-07)
(9.30424e-07 2.27224e-08 0 3.34423e-09 0 3.34018e-07)
(9.35725e-07 2.29055e-08 0 3.43939e-09 0 3.37529e-07)
(9.41911e-07 2.31332e-08 0 3.51672e-09 0 3.41198e-07)
(9.48342e-07 2.33156e-08 0 3.5998e-09 0 3.4469e-07)
(9.557e-07 2.34797e-08 0 3.68683e-09 0 3.47745e-07)
(9.63839e-07 2.36954e-08 0 3.77998e-09 0 3.50415e-07)
(9.72573e-07 2.39555e-08 0 3.88025e-09 0 3.5369e-07)
(9.81005e-07 2.4259e-08 0 3.98324e-09 0 3.57497e-07)
(9.87365e-07 2.44246e-08 0 4.06492e-09 0 3.60997e-07)
(9.93181e-07 2.45546e-08 0 4.13081e-09 0 3.64538e-07)
(1.00001e-06 2.46055e-08 0 4.19791e-09 0 3.67819e-07)
(1.00763e-06 2.47839e-08 0 4.29276e-09 0 3.71452e-07)
(1.01622e-06 2.49424e-08 0 4.36949e-09 0 3.74628e-07)
(1.02518e-06 2.50761e-08 0 4.45112e-09 0 3.77046e-07)
(1.034e-06 2.51918e-08 0 4.53051e-09 0 3.79053e-07)
(1.0426e-06 2.53485e-08 0 4.59158e-09 0 3.80644e-07)
(1.04992e-06 2.54966e-08 0 4.65634e-09 0 3.8167e-07)
(1.05622e-06 2.5556e-08 0 4.70286e-09 0 3.82025e-07)
(1.06174e-06 2.5554e-08 0 4.74555e-09 0 3.82574e-07)
(1.06753e-06 2.54994e-08 0 4.79746e-09 0 3.83246e-07)
(1.07542e-06 2.54489e-08 0 4.84018e-09 0 3.84947e-07)
(1.08332e-06 2.55544e-08 0 4.87329e-09 0 3.85862e-07)
(1.0884e-06 2.55394e-08 0 4.90837e-09 0 3.85502e-07)
(1.0926e-06 2.55416e-08 0 4.91325e-09 0 3.83649e-07)
(1.09392e-06 2.52652e-08 0 4.87142e-09 0 3.81129e-07)
(1.09577e-06 2.50132e-08 0 4.86578e-09 0 3.78848e-07)
(1.09759e-06 2.49553e-08 0 4.87407e-09 0 3.76422e-07)
(1.09692e-06 2.46943e-08 0 4.85162e-09 0 3.73278e-07)
(1.09366e-06 2.4334e-08 0 4.80009e-09 0 3.70344e-07)
(1.0905e-06 2.39489e-08 0 4.76428e-09 0 3.67376e-07)
(1.08917e-06 2.36987e-08 0 4.69328e-09 0 3.62836e-07)
(1.08603e-06 2.33044e-08 0 4.60295e-09 0 3.56904e-07)
(1.08118e-06 2.27947e-08 0 4.50164e-09 0 3.50097e-07)
(1.07709e-06 2.22484e-08 0 4.4087e-09 0 3.42959e-07)
(1.0738e-06 2.18901e-08 0 4.31793e-09 0 3.37193e-07)
(1.06898e-06 2.1499e-08 0 4.21033e-09 0 3.31689e-07)
(1.0631e-06 2.11044e-08 0 4.12829e-09 0 3.26245e-07)
(1.0585e-06 2.06776e-08 0 4.04949e-09 0 3.20688e-07)
(1.05385e-06 2.03013e-08 0 3.95635e-09 0 3.15376e-07)
(1.04815e-06 2.0004e-08 0 3.8544e-09 0 3.09532e-07)
(1.03975e-06 1.95637e-08 0 3.73254e-09 0 3.03129e-07)
(1.03116e-06 1.90813e-08 0 3.60963e-09 0 2.97421e-07)
(1.02385e-06 1.87301e-08 0 3.50485e-09 0 2.91593e-07)
(1.01657e-06 1.83372e-08 0 3.3799e-09 0 2.8536e-07)
(1.01092e-06 1.80373e-08 0 3.2768e-09 0 2.80086e-07)
(1.00498e-06 1.77842e-08 0 3.19248e-09 0 2.74877e-07)
(9.97444e-07 1.75383e-08 0 3.09656e-09 0 2.69988e-07)
(9.87994e-07 1.7135e-08 0 2.99959e-09 0 2.64616e-07)
(9.79672e-07 1.67257e-08 0 2.89804e-09 0 2.59567e-07)
(9.72596e-07 1.64111e-08 0 2.77793e-09 0 2.55449e-07)
(9.64987e-07 1.61411e-08 0 2.69457e-09 0 2.5196e-07)
(9.57635e-07 1.59239e-08 0 2.61863e-09 0 2.48376e-07)
(9.49915e-07 1.56742e-08 0 2.52818e-09 0 2.44488e-07)
(9.4309e-07 1.5526e-08 0 2.45579e-09 0 2.41225e-07)
(9.35972e-07 1.54022e-08 0 2.40216e-09 0 2.38152e-07)
(9.29167e-07 1.53073e-08 0 2.35749e-09 0 2.36104e-07)
(9.21917e-07 1.52218e-08 0 2.29958e-09 0 2.34257e-07)
(9.14592e-07 1.5057e-08 0 2.22611e-09 0 2.32367e-07)
(9.07797e-07 1.49389e-08 0 2.17714e-09 0 2.30617e-07)
(9.02086e-07 1.4807e-08 0 2.11765e-09 0 2.29239e-07)
(8.97644e-07 1.47639e-08 0 2.07739e-09 0 2.28638e-07)
(8.93643e-07 1.46968e-08 0 2.04788e-09 0 2.28295e-07)
(8.91291e-07 1.46519e-08 0 2.01413e-09 0 2.28027e-07)
(8.90224e-07 1.4684e-08 0 1.99214e-09 0 2.28191e-07)
(8.90178e-07 1.47359e-08 0 1.97225e-09 0 2.28759e-07)
(8.90466e-07 1.48935e-08 0 1.95562e-09 0 2.29801e-07)
(8.90586e-07 1.50424e-08 0 1.92965e-09 0 2.31156e-07)
(8.90628e-07 1.51601e-08 0 1.92318e-09 0 2.32674e-07)
(8.92073e-07 1.53301e-08 0 1.93081e-09 0 2.34187e-07)
(8.9446e-07 1.55748e-08 0 1.93078e-09 0 2.3621e-07)
(8.96134e-07 1.58363e-08 0 1.92362e-09 0 2.38481e-07)
(8.97274e-07 1.61087e-08 0 1.93409e-09 0 2.40951e-07)
(8.97793e-07 1.63544e-08 0 1.94517e-09 0 2.43593e-07)
(8.98754e-07 1.66185e-08 0 1.976e-09 0 2.46178e-07)
(8.99981e-07 1.69195e-08 0 1.99874e-09 0 2.49301e-07)
(9.0078e-07 1.72182e-08 0 2.0192e-09 0 2.52915e-07)
(9.00929e-07 1.75167e-08 0 2.05405e-09 0 2.56744e-07)
(9.01061e-07 1.77947e-08 0 2.08752e-09 0 2.60562e-07)
(2.74488e-06 5.50813e-08 0 6.47749e-09 0 8.05378e-07)
(2.74555e-06 5.595e-08 0 6.60732e-09 0 8.17602e-07)
(2.74689e-06 5.6842e-08 0 6.73688e-09 0 8.30243e-07)
(2.75095e-06 5.77537e-08 0 6.84063e-09 0 8.43171e-07)
(2.75374e-06 5.85361e-08 0 6.92906e-09 0 8.55177e-07)
(2.75706e-06 5.93521e-08 0 7.04334e-09 0 8.6715e-07)
(2.7628e-06 6.033e-08 0 7.21902e-09 0 8.80072e-07)
(2.7701e-06 6.1268e-08 0 7.41861e-09 0 8.93029e-07)
(2.77789e-06 6.22186e-08 0 7.61742e-09 0 9.0586e-07)
(2.78643e-06 6.30968e-08 0 7.77021e-09 0 9.18823e-07)
(2.79327e-06 6.40905e-08 0 7.95492e-09 0 9.31421e-07)
(2.79936e-06 6.47972e-08 0 8.1393e-09 0 9.42225e-07)
(2.80709e-06 6.53644e-08 0 8.31984e-09 0 9.52897e-07)
(2.81518e-06 6.61278e-08 0 8.54922e-09 0 9.64417e-07)
(2.82444e-06 6.67638e-08 0 8.76963e-09 0 9.7627e-07)
(2.83696e-06 6.75343e-08 0 8.99665e-09 0 9.88653e-07)
(2.85072e-06 6.82374e-08 0 9.21607e-09 0 1.00002e-06)
(2.86045e-06 6.89778e-08 0 9.46753e-09 0 1.00826e-06)
(2.87478e-06 6.98682e-08 0 9.73905e-09 0 1.0175e-06)
(2.88635e-06 7.05011e-08 0 9.96807e-09 0 1.02709e-06)
(2.89887e-06 7.09176e-08 0 1.02104e-08 0 1.03676e-06)
(2.91689e-06 7.12354e-08 0 1.04844e-08 0 1.04715e-06)
(2.93351e-06 7.18089e-08 0 1.07827e-08 0 1.05816e-06)
(2.95762e-06 7.26392e-08 0 1.10427e-08 0 1.07137e-06)
(2.98255e-06 7.33276e-08 0 1.13215e-08 0 1.08406e-06)
(3.01047e-06 7.39619e-08 0 1.16137e-08 0 1.0954e-06)
(3.0361e-06 7.46409e-08 0 1.19071e-08 0 1.10381e-06)
(3.06848e-06 7.558e-08 0 1.22423e-08 0 1.1159e-06)
(3.09508e-06 7.65375e-08 0 1.25673e-08 0 1.12791e-06)
(3.12008e-06 7.71817e-08 0 1.28452e-08 0 1.14075e-06)
(3.13846e-06 7.75927e-08 0 1.30534e-08 0 1.15194e-06)
(3.16505e-06 7.78765e-08 0 1.32864e-08 0 1.16415e-06)
(3.18915e-06 7.84412e-08 0 1.35867e-08 0 1.17565e-06)
(3.21634e-06 7.89428e-08 0 1.38295e-08 0 1.1857e-06)
(3.24982e-06 7.94914e-08 0 1.41102e-08 0 1.19524e-06)
(3.27778e-06 7.98582e-08 0 1.43618e-08 0 1.2016e-06)
(3.30505e-06 8.03548e-08 0 1.45553e-08 0 1.20664e-06)
(3.32824e-06 8.08242e-08 0 1.47606e-08 0 1.20989e-06)
(3.35351e-06 8.11405e-08 0 1.49316e-08 0 1.21293e-06)
(3.37101e-06 8.11339e-08 0 1.50671e-08 0 1.21467e-06)
(3.38941e-06 8.09605e-08 0 1.52319e-08 0 1.21681e-06)
(3.41446e-06 8.08004e-08 0 1.53676e-08 0 1.22221e-06)
(3.43954e-06 8.11353e-08 0 1.54727e-08 0 1.22511e-06)
(3.45567e-06 8.10876e-08 0 1.55841e-08 0 1.22397e-06)
(3.46902e-06 8.10946e-08 0 1.55996e-08 0 1.21808e-06)
(3.47319e-06 8.02169e-08 0 1.54668e-08 0 1.21009e-06)
(3.47908e-06 7.94169e-08 0 1.54489e-08 0 1.20284e-06)
(3.48484e-06 7.9233e-08 0 1.54752e-08 0 1.19514e-06)
(3.48271e-06 7.84042e-08 0 1.54039e-08 0 1.18516e-06)
(3.47237e-06 7.72605e-08 0 1.52403e-08 0 1.17584e-06)
(3.46234e-06 7.60378e-08 0 1.51266e-08 0 1.16642e-06)
(3.4581e-06 7.52432e-08 0 1.49012e-08 0 1.152e-06)
(3.44815e-06 7.39917e-08 0 1.46144e-08 0 1.13317e-06)
(3.43276e-06 7.23736e-08 0 1.42928e-08 0 1.11156e-06)
(3.41978e-06 7.0639e-08 0 1.39977e-08 0 1.0889e-06)
(3.40931e-06 6.95011e-08 0 1.37094e-08 0 1.07059e-06)
(3.39402e-06 6.82592e-08 0 1.33678e-08 0 1.05311e-06)
(3.37534e-06 6.70064e-08 0 1.31073e-08 0 1.03583e-06)
(3.36075e-06 6.56514e-08 0 1.28572e-08 0 1.01819e-06)
(3.34596e-06 6.44568e-08 0 1.25615e-08 0 1.00132e-06)
(3.32265e-06 6.34129e-08 0 1.22185e-08 0 9.8122e-07)
(3.296e-06 6.2017e-08 0 1.18322e-08 0 9.60921e-07)
(3.26878e-06 6.04882e-08 0 1.14427e-08 0 9.4283e-07)
(3.2456e-06 5.93746e-08 0 1.11105e-08 0 9.24355e-07)
(3.22255e-06 5.81293e-08 0 1.07144e-08 0 9.04599e-07)
(3.19957e-06 5.70883e-08 0 1.03711e-08 0 8.86479e-07)
(3.18076e-06 5.62873e-08 0 1.01043e-08 0 8.69991e-07)
(3.15692e-06 5.55092e-08 0 9.80073e-09 0 8.54518e-07)
(3.12207e-06 5.41469e-08 0 9.47881e-09 0 8.36191e-07)
(3.09577e-06 5.28537e-08 0 9.15792e-09 0 8.20237e-07)
(3.06855e-06 5.17773e-08 0 8.76454e-09 0 8.05947e-07)
(3.04454e-06 5.09256e-08 0 8.50148e-09 0 7.94939e-07)
(3.01656e-06 5.01606e-08 0 8.24883e-09 0 7.82388e-07)
(2.99225e-06 4.93739e-08 0 7.96395e-09 0 7.70142e-07)
(2.96603e-06 4.88296e-08 0 7.7236e-09 0 7.5866e-07)
(2.93897e-06 4.8363e-08 0 7.5429e-09 0 7.47803e-07)
(2.9176e-06 4.80651e-08 0 7.40264e-09 0 7.41372e-07)
(2.89023e-06 4.77206e-08 0 7.20935e-09 0 7.34399e-07)
(2.86269e-06 4.71289e-08 0 6.96789e-09 0 7.27313e-07)
(2.83688e-06 4.66846e-08 0 6.80378e-09 0 7.20683e-07)
(2.81903e-06 4.62722e-08 0 6.61775e-09 0 7.16373e-07)
(2.80066e-06 4.60634e-08 0 6.48159e-09 0 7.13354e-07)
(2.78371e-06 4.57808e-08 0 6.37921e-09 0 7.1114e-07)
(2.77192e-06 4.55675e-08 0 6.26406e-09 0 7.09166e-07)
(2.76415e-06 4.55938e-08 0 6.18563e-09 0 7.08534e-07)
(2.75955e-06 4.56807e-08 0 6.11405e-09 0 7.09149e-07)
(2.75599e-06 4.60948e-08 0 6.0527e-09 0 7.1123e-07)
(2.75191e-06 4.64805e-08 0 5.96267e-09 0 7.14268e-07)
(2.74759e-06 4.67687e-08 0 5.93302e-09 0 7.17797e-07)
(2.74758e-06 4.72161e-08 0 5.94687e-09 0 7.21293e-07)
(2.75046e-06 4.78919e-08 0 5.93717e-09 0 7.2634e-07)
(2.75113e-06 4.8617e-08 0 5.9055e-09 0 7.32132e-07)
(2.75014e-06 4.93725e-08 0 5.92796e-09 0 7.38509e-07)
(2.74725e-06 5.00441e-08 0 5.95218e-09 0 7.45392e-07)
(2.74569e-06 5.07693e-08 0 6.03664e-09 0 7.52071e-07)
(2.74494e-06 5.16041e-08 0 6.09614e-09 0 7.60364e-07)
(2.74738e-06 5.25152e-08 0 6.15852e-09 0 7.71388e-07)
(2.74333e-06 5.3338e-08 0 6.25457e-09 0 7.81782e-07)
(2.74373e-06 5.41847e-08 0 6.3565e-09 0 7.93411e-07)
(5.02972e-06 1.35827e-07 0 2.09905e-08 0 1.44052e-06)
(5.02155e-06 1.37648e-07 0 2.14437e-08 0 1.46198e-06)
(5.03309e-06 1.40414e-07 0 2.20664e-08 0 1.48729e-06)
(5.04065e-06 1.43227e-07 0 2.26814e-08 0 1.51138e-06)
(5.05464e-06 1.46261e-07 0 2.33646e-08 0 1.53588e-06)
(5.07736e-06 1.49827e-07 0 2.42396e-08 0 1.56252e-06)
(5.09565e-06 1.53237e-07 0 2.51965e-08 0 1.58885e-06)
(5.12541e-06 1.57081e-07 0 2.63112e-08 0 1.61678e-06)
(5.15613e-06 1.60964e-07 0 2.74578e-08 0 1.64417e-06)
(5.18835e-06 1.64702e-07 0 2.8519e-08 0 1.67147e-06)
(5.21904e-06 1.68679e-07 0 2.96932e-08 0 1.69773e-06)
(5.24902e-06 1.72343e-07 0 3.09587e-08 0 1.72148e-06)
(5.27496e-06 1.74983e-07 0 3.19234e-08 0 1.74273e-06)
(5.30948e-06 1.78647e-07 0 3.32411e-08 0 1.76771e-06)
(5.34657e-06 1.82204e-07 0 3.46795e-08 0 1.79339e-06)
(5.3815e-06 1.85298e-07 0 3.59042e-08 0 1.81716e-06)
(5.42599e-06 1.89084e-07 0 3.7375e-08 0 1.84155e-06)
(5.46421e-06 1.9236e-07 0 3.87408e-08 0 1.8613e-06)
(5.51084e-06 1.96133e-07 0 4.0186e-08 0 1.88234e-06)
(5.54933e-06 1.99334e-07 0 4.16769e-08 0 1.90189e-06)
(5.58894e-06 2.01925e-07 0 4.30664e-08 0 1.92145e-06)
(5.63693e-06 2.04403e-07 0 4.45088e-08 0 1.9428e-06)
(5.69119e-06 2.0753e-07 0 4.61327e-08 0 1.96757e-06)
(5.75087e-06 2.1108e-07 0 4.77676e-08 0 1.99345e-06)
(5.80281e-06 2.13725e-07 0 4.906e-08 0 2.01506e-06)
(5.86913e-06 2.16926e-07 0 5.06554e-08 0 2.03695e-06)
(5.93242e-06 2.19753e-07 0 5.21987e-08 0 2.05495e-06)
(6.00014e-06 2.22956e-07 0 5.38285e-08 0 2.07639e-06)
(6.06657e-06 2.26551e-07 0 5.54824e-08 0 2.09989e-06)
(6.12465e-06 2.29271e-07 0 5.69011e-08 0 2.12236e-06)
(6.17851e-06 2.3165e-07 0 5.80669e-08 0 2.14504e-06)
(6.2334e-06 2.33168e-07 0 5.9264e-08 0 2.16531e-06)
(6.29951e-06 2.35803e-07 0 6.08687e-08 0 2.18842e-06)
(6.3633e-06 2.37947e-07 0 6.21195e-08 0 2.20631e-06)
(6.42427e-06 2.39623e-07 0 6.3172e-08 0 2.22044e-06)
(6.48846e-06 2.41322e-07 0 6.42748e-08 0 2.23182e-06)
(6.55084e-06 2.43216e-07 0 6.5243e-08 0 2.24126e-06)
(6.60783e-06 2.44972e-07 0 6.6268e-08 0 2.24771e-06)
(6.6579e-06 2.45848e-07 0 6.71397e-08 0 2.25089e-06)
(6.70457e-06 2.46532e-07 0 6.78562e-08 0 2.2556e-06)
(6.74544e-06 2.46198e-07 0 6.83718e-08 0 2.25874e-06)
(6.8067e-06 2.46666e-07 0 6.91235e-08 0 2.26686e-06)
(6.85366e-06 2.47519e-07 0 6.93954e-08 0 2.26937e-06)
(6.90064e-06 2.48107e-07 0 6.995e-08 0 2.26717e-06)
(6.93519e-06 2.47547e-07 0 7.005e-08 0 2.25522e-06)
(6.96641e-06 2.46326e-07 0 6.9809e-08 0 2.24243e-06)
(6.98514e-06 2.44507e-07 0 6.94979e-08 0 2.22871e-06)
(7.00731e-06 2.43685e-07 0 6.92737e-08 0 2.21258e-06)
(7.01547e-06 2.41666e-07 0 6.88475e-08 0 2.19477e-06)
(7.01232e-06 2.39081e-07 0 6.81267e-08 0 2.17799e-06)
(7.00809e-06 2.36109e-07 0 6.74744e-08 0 2.15985e-06)
(7.01266e-06 2.33318e-07 0 6.63526e-08 0 2.13153e-06)
(7.01093e-06 2.30418e-07 0 6.50954e-08 0 2.09761e-06)
(6.99917e-06 2.26762e-07 0 6.36568e-08 0 2.05982e-06)
(6.97616e-06 2.21599e-07 0 6.20494e-08 0 2.01884e-06)
(6.96647e-06 2.18394e-07 0 6.07581e-08 0 1.9859e-06)
(6.9395e-06 2.14411e-07 0 5.90379e-08 0 1.95287e-06)
(6.91849e-06 2.10634e-07 0 5.7649e-08 0 1.92101e-06)
(6.89145e-06 2.06592e-07 0 5.63714e-08 0 1.88896e-06)
(6.87617e-06 2.03343e-07 0 5.48462e-08 0 1.85805e-06)
(6.84404e-06 2.00234e-07 0 5.32477e-08 0 1.82375e-06)
(6.80089e-06 1.96326e-07 0 5.1436e-08 0 1.7874e-06)
(6.75501e-06 1.92259e-07 0 4.97381e-08 0 1.75508e-06)
(6.71278e-06 1.88513e-07 0 4.79229e-08 0 1.72063e-06)
(6.6682e-06 1.84784e-07 0 4.62259e-08 0 1.68539e-06)
(6.63012e-06 1.81909e-07 0 4.49199e-08 0 1.65582e-06)
(6.59052e-06 1.79089e-07 0 4.34458e-08 0 1.62538e-06)
(6.53366e-06 1.75681e-07 0 4.17487e-08 0 1.59478e-06)
(6.47845e-06 1.72359e-07 0 4.04615e-08 0 1.56539e-06)
(6.41696e-06 1.68169e-07 0 3.88971e-08 0 1.53626e-06)
(6.3588e-06 1.64659e-07 0 3.70515e-08 0 1.51113e-06)
(6.29776e-06 1.61635e-07 0 3.57317e-08 0 1.48943e-06)
(6.23651e-06 1.59111e-07 0 3.44909e-08 0 1.46738e-06)
(6.17081e-06 1.562e-07 0 3.32043e-08 0 1.44424e-06)
(6.1012e-06 1.53609e-07 0 3.21009e-08 0 1.42278e-06)
(6.03853e-06 1.51284e-07 0 3.10332e-08 0 1.40435e-06)
(5.97274e-06 1.49207e-07 0 3.01852e-08 0 1.38948e-06)
(5.90402e-06 1.4739e-07 0 2.92345e-08 0 1.37585e-06)
(5.84235e-06 1.45495e-07 0 2.81854e-08 0 1.36405e-06)
(5.76561e-06 1.42851e-07 0 2.71873e-08 0 1.34994e-06)
(5.70141e-06 1.4064e-07 0 2.62147e-08 0 1.33973e-06)
(5.64524e-06 1.39008e-07 0 2.54602e-08 0 1.33321e-06)
(5.58444e-06 1.36875e-07 0 2.47714e-08 0 1.32592e-06)
(5.53745e-06 1.35339e-07 0 2.41051e-08 0 1.32157e-06)
(5.48873e-06 1.33767e-07 0 2.35102e-08 0 1.31725e-06)
(5.45262e-06 1.33036e-07 0 2.30317e-08 0 1.317e-06)
(5.41072e-06 1.32413e-07 0 2.25161e-08 0 1.31716e-06)
(5.36844e-06 1.31738e-07 0 2.19926e-08 0 1.31878e-06)
(5.32592e-06 1.30969e-07 0 2.16139e-08 0 1.32104e-06)
(5.29079e-06 1.30241e-07 0 2.12877e-08 0 1.32286e-06)
(5.25614e-06 1.30089e-07 0 2.09518e-08 0 1.3281e-06)
(5.21987e-06 1.30116e-07 0 2.06212e-08 0 1.33427e-06)
(5.19135e-06 1.3053e-07 0 2.04791e-08 0 1.34262e-06)
(5.15305e-06 1.30216e-07 0 2.02254e-08 0 1.34934e-06)
(5.12358e-06 1.30433e-07 0 2.01961e-08 0 1.35826e-06)
(5.09447e-06 1.30871e-07 0 2.01665e-08 0 1.3701e-06)
(5.06599e-06 1.31348e-07 0 2.01096e-08 0 1.38354e-06)
(5.04955e-06 1.32872e-07 0 2.04047e-08 0 1.40221e-06)
(5.03588e-06 1.34022e-07 0 2.06099e-08 0 1.41987e-06)
(8.60582e-06 3.59689e-07 0 6.92064e-08 0 2.3378e-06)
(8.56801e-06 3.64009e-07 0 7.08128e-08 0 2.37238e-06)
(8.55641e-06 3.69203e-07 0 7.25413e-08 0 2.40882e-06)
(8.55951e-06 3.75571e-07 0 7.44222e-08 0 2.44765e-06)
(8.56877e-06 3.81964e-07 0 7.63666e-08 0 2.48682e-06)
(8.58827e-06 3.88705e-07 0 7.86269e-08 0 2.52855e-06)
(8.61916e-06 3.96669e-07 0 8.15429e-08 0 2.57503e-06)
(8.66015e-06 4.04404e-07 0 8.44658e-08 0 2.61877e-06)
(8.70382e-06 4.12178e-07 0 8.7486e-08 0 2.66045e-06)
(8.75118e-06 4.19609e-07 0 9.03037e-08 0 2.70098e-06)
(8.80909e-06 4.28006e-07 0 9.35491e-08 0 2.7409e-06)
(8.86109e-06 4.35836e-07 0 9.69368e-08 0 2.77668e-06)
(8.91881e-06 4.42598e-07 0 9.99124e-08 0 2.8128e-06)
(8.98125e-06 4.50073e-07 0 1.03389e-07 0 2.85055e-06)
(9.04876e-06 4.57494e-07 0 1.06989e-07 0 2.88921e-06)
(9.12295e-06 4.64807e-07 0 1.105e-07 0 2.92705e-06)
(9.19232e-06 4.72288e-07 0 1.14063e-07 0 2.96078e-06)
(9.26422e-06 4.7938e-07 0 1.17839e-07 0 2.99174e-06)
(9.34222e-06 4.86233e-07 0 1.21523e-07 0 3.02227e-06)
(9.42645e-06 4.93797e-07 0 1.25567e-07 0 3.05355e-06)
(9.51243e-06 4.99987e-07 0 1.29354e-07 0 3.08481e-06)
(9.59955e-06 5.05564e-07 0 1.33009e-07 0 3.11779e-06)
(9.69787e-06 5.12177e-07 0 1.37263e-07 0 3.15451e-06)
(9.8017e-06 5.19481e-07 0 1.4144e-07 0 3.19259e-06)
(9.90975e-06 5.26854e-07 0 1.45556e-07 0 3.22643e-06)
(1.0016e-05 5.32924e-07 0 1.49298e-07 0 3.25468e-06)
(1.01284e-05 5.39256e-07 0 1.53347e-07 0 3.28231e-06)
(1.02394e-05 5.45431e-07 0 1.57247e-07 0 3.31203e-06)
(1.03628e-05 5.53878e-07 0 1.61855e-07 0 3.34623e-06)
(1.04747e-05 5.60088e-07 0 1.65684e-07 0 3.3777e-06)
(1.05768e-05 5.6512e-07 0 1.68786e-07 0 3.40841e-06)
(1.06913e-05 5.70071e-07 0 1.72221e-07 0 3.44217e-06)
(1.08029e-05 5.74774e-07 0 1.75993e-07 0 3.47158e-06)
(1.09227e-05 5.80152e-07 0 1.7944e-07 0 3.49614e-06)
(1.10411e-05 5.84785e-07 0 1.82642e-07 0 3.51674e-06)
(1.11572e-05 5.88678e-07 0 1.85496e-07 0 3.52917e-06)
(1.1268e-05 5.9284e-07 0 1.87964e-07 0 3.54018e-06)
(1.13685e-05 5.96143e-07 0 1.9048e-07 0 3.54705e-06)
(1.14588e-05 5.97524e-07 0 1.92705e-07 0 3.55049e-06)
(1.15495e-05 5.99008e-07 0 1.94484e-07 0 3.55706e-06)
(1.16395e-05 5.991e-07 0 1.96034e-07 0 3.56225e-06)
(1.17473e-05 6.00345e-07 0 1.97788e-07 0 3.56736e-06)
(1.18396e-05 6.03112e-07 0 1.98708e-07 0 3.56575e-06)
(1.19207e-05 6.03481e-07 0 1.99664e-07 0 3.55678e-06)
(1.199e-05 6.01539e-07 0 2.00015e-07 0 3.53699e-06)
(1.20642e-05 5.9893e-07 0 1.99096e-07 0 3.51568e-06)
(1.21202e-05 5.94772e-07 0 1.97781e-07 0 3.49072e-06)
(1.21845e-05 5.93375e-07 0 1.9719e-07 0 3.46534e-06)
(1.22255e-05 5.89118e-07 0 1.95848e-07 0 3.43834e-06)
(1.22554e-05 5.84048e-07 0 1.93807e-07 0 3.41308e-06)
(1.22801e-05 5.7785e-07 0 1.91821e-07 0 3.38316e-06)
(1.23093e-05 5.7122e-07 0 1.88824e-07 0 3.33797e-06)
(1.23351e-05 5.64486e-07 0 1.85028e-07 0 3.28384e-06)
(1.23556e-05 5.5724e-07 0 1.80778e-07 0 3.22854e-06)
(1.23492e-05 5.46283e-07 0 1.76402e-07 0 3.17141e-06)
(1.23552e-05 5.38852e-07 0 1.72718e-07 0 3.12187e-06)
(1.23425e-05 5.3045e-07 0 1.68161e-07 0 3.07401e-06)
(1.23274e-05 5.21529e-07 0 1.64137e-07 0 3.0245e-06)
(1.23059e-05 5.11548e-07 0 1.6004e-07 0 2.97509e-06)
(1.22967e-05 5.04209e-07 0 1.55694e-07 0 2.92757e-06)
(1.22668e-05 4.97172e-07 0 1.51216e-07 0 2.87668e-06)
(1.22293e-05 4.89265e-07 0 1.46419e-07 0 2.82638e-06)
(1.21857e-05 4.80804e-07 0 1.41685e-07 0 2.78073e-06)
(1.21379e-05 4.72637e-07 0 1.36843e-07 0 2.73138e-06)
(1.20821e-05 4.64314e-07 0 1.32145e-07 0 2.681e-06)
(1.20175e-05 4.56809e-07 0 1.27997e-07 0 2.63611e-06)
(1.19531e-05 4.50127e-07 0 1.23849e-07 0 2.591e-06)
(1.1881e-05 4.4302e-07 0 1.19649e-07 0 2.54806e-06)
(1.18021e-05 4.35743e-07 0 1.15887e-07 0 2.50703e-06)
(1.17114e-05 4.26646e-07 0 1.11581e-07 0 2.4681e-06)
(1.16191e-05 4.19406e-07 0 1.06847e-07 0 2.43321e-06)
(1.152e-05 4.12907e-07 0 1.03157e-07 0 2.40183e-06)
(1.14074e-05 4.07288e-07 0 9.96731e-08 0 2.36901e-06)
(1.12859e-05 4.00813e-07 0 9.63812e-08 0 2.33662e-06)
(1.11661e-05 3.95469e-07 0 9.36041e-08 0 2.30754e-06)
(1.10466e-05 3.89513e-07 0 9.06151e-08 0 2.28205e-06)
(1.09301e-05 3.84997e-07 0 8.82196e-08 0 2.26091e-06)
(1.08116e-05 3.81545e-07 0 8.57218e-08 0 2.24235e-06)
(1.06895e-05 3.77226e-07 0 8.30098e-08 0 2.22493e-06)
(1.05607e-05 3.72277e-07 0 8.06056e-08 0 2.20803e-06)
(1.04327e-05 3.67583e-07 0 7.81608e-08 0 2.19455e-06)
(1.03128e-05 3.6373e-07 0 7.6061e-08 0 2.18558e-06)
(1.0202e-05 3.60079e-07 0 7.44346e-08 0 2.17754e-06)
(1.00839e-05 3.56359e-07 0 7.26473e-08 0 2.17068e-06)
(9.97408e-06 3.53175e-07 0 7.13155e-08 0 2.16531e-06)
(9.87703e-06 3.51621e-07 0 7.01854e-08 0 2.1646e-06)
(9.7629e-06 3.50301e-07 0 6.89526e-08 0 2.16396e-06)
(9.658e-06 3.49431e-07 0 6.79566e-08 0 2.1672e-06)
(9.55245e-06 3.48702e-07 0 6.7315e-08 0 2.17083e-06)
(9.45123e-06 3.47523e-07 0 6.67052e-08 0 2.17415e-06)
(9.34919e-06 3.47187e-07 0 6.61287e-08 0 2.18118e-06)
(9.24557e-06 3.47623e-07 0 6.56973e-08 0 2.18989e-06)
(9.14028e-06 3.47995e-07 0 6.54809e-08 0 2.19898e-06)
(9.03584e-06 3.47845e-07 0 6.5254e-08 0 2.20711e-06)
(8.93502e-06 3.47928e-07 0 6.53722e-08 0 2.21946e-06)
(8.84509e-06 3.48695e-07 0 6.56521e-08 0 2.23654e-06)
(8.76877e-06 3.50487e-07 0 6.60392e-08 0 2.25617e-06)
(8.70215e-06 3.53426e-07 0 6.70168e-08 0 2.28134e-06)
(8.657e-06 3.56375e-07 0 6.80199e-08 0 2.30837e-06)
(1.2029e-05 5.96989e-07 0 1.27486e-07 0 3.2501e-06)
(1.19566e-05 6.02715e-07 0 1.30147e-07 0 3.29237e-06)
(1.19042e-05 6.1098e-07 0 1.33968e-07 0 3.34045e-06)
(1.18683e-05 6.21007e-07 0 1.38289e-07 0 3.39083e-06)
(1.18447e-05 6.32016e-07 0 1.43207e-07 0 3.44426e-06)
(1.18317e-05 6.43265e-07 0 1.48658e-07 0 3.4998e-06)
(1.18352e-05 6.55281e-07 0 1.54682e-07 0 3.55714e-06)
(1.18461e-05 6.67654e-07 0 1.6142e-07 0 3.61227e-06)
(1.18634e-05 6.8017e-07 0 1.68284e-07 0 3.66376e-06)
(1.1892e-05 6.92674e-07 0 1.75184e-07 0 3.71409e-06)
(1.19287e-05 7.05657e-07 0 1.82608e-07 0 3.76015e-06)
(1.19724e-05 7.18336e-07 0 1.90268e-07 0 3.80343e-06)
(1.20186e-05 7.29521e-07 0 1.97506e-07 0 3.84658e-06)
(1.20781e-05 7.41739e-07 0 2.05285e-07 0 3.8925e-06)
(1.21444e-05 7.53916e-07 0 2.1333e-07 0 3.93731e-06)
(1.22206e-05 7.66102e-07 0 2.21461e-07 0 3.98019e-06)
(1.22986e-05 7.78726e-07 0 2.29388e-07 0 4.02059e-06)
(1.23795e-05 7.90394e-07 0 2.37571e-07 0 4.05655e-06)
(1.24728e-05 8.01999e-07 0 2.46175e-07 0 4.09337e-06)
(1.25684e-05 8.13728e-07 0 2.54445e-07 0 4.12855e-06)
(1.26774e-05 8.25226e-07 0 2.63286e-07 0 4.16577e-06)
(1.27852e-05 8.35006e-07 0 2.71344e-07 0 4.20467e-06)
(1.29136e-05 8.47251e-07 0 2.80789e-07 0 4.24861e-06)
(1.3036e-05 8.58743e-07 0 2.89015e-07 0 4.28905e-06)
(1.31715e-05 8.71212e-07 0 2.97918e-07 0 4.32574e-06)
(1.3302e-05 8.81063e-07 0 3.0556e-07 0 4.35571e-06)
(1.3447e-05 8.91851e-07 0 3.1404e-07 0 4.38785e-06)
(1.35952e-05 9.0273e-07 0 3.22245e-07 0 4.42295e-06)
(1.37424e-05 9.14669e-07 0 3.30686e-07 0 4.45784e-06)
(1.38998e-05 9.2595e-07 0 3.38967e-07 0 4.49224e-06)
(1.40488e-05 9.35465e-07 0 3.45926e-07 0 4.52764e-06)
(1.42003e-05 9.44101e-07 0 3.52939e-07 0 4.56388e-06)
(1.43555e-05 9.52547e-07 0 3.60168e-07 0 4.59544e-06)
(1.45205e-05 9.62365e-07 0 3.67111e-07 0 4.61972e-06)
(1.46847e-05 9.70793e-07 0 3.73605e-07 0 4.63981e-06)
(1.48438e-05 9.77526e-07 0 3.78836e-07 0 4.65246e-06)
(1.50124e-05 9.86177e-07 0 3.83949e-07 0 4.6627e-06)
(1.51636e-05 9.93189e-07 0 3.8877e-07 0 4.66829e-06)
(1.52988e-05 9.96791e-07 0 3.92971e-07 0 4.66936e-06)
(1.54303e-05 9.98725e-07 0 3.95919e-07 0 4.67269e-06)
(1.55746e-05 1.00137e-06 0 3.98901e-07 0 4.67786e-06)
(1.57114e-05 1.00378e-06 0 4.01406e-07 0 4.67689e-06)
(1.58539e-05 1.00876e-06 0 4.02919e-07 0 4.66835e-06)
(1.59824e-05 1.01037e-06 0 4.04504e-07 0 4.65335e-06)
(1.6104e-05 1.00793e-06 0 4.05132e-07 0 4.62783e-06)
(1.62272e-05 1.00436e-06 0 4.03193e-07 0 4.60008e-06)
(1.63383e-05 1.00065e-06 0 4.00571e-07 0 4.5694e-06)
(1.64508e-05 9.98496e-07 0 3.98164e-07 0 4.53585e-06)
(1.65534e-05 9.93858e-07 0 3.9465e-07 0 4.50068e-06)
(1.664e-05 9.86984e-07 0 3.90453e-07 0 4.46654e-06)
(1.67201e-05 9.79904e-07 0 3.85879e-07 0 4.42504e-06)
(1.68025e-05 9.70627e-07 0 3.79702e-07 0 4.36905e-06)
(1.68726e-05 9.61857e-07 0 3.7259e-07 0 4.30529e-06)
(1.69366e-05 9.51282e-07 0 3.63778e-07 0 4.23739e-06)
(1.69794e-05 9.37315e-07 0 3.55157e-07 0 4.17046e-06)
(1.70133e-05 9.24225e-07 0 3.47109e-07 0 4.10703e-06)
(1.7031e-05 9.10621e-07 0 3.37688e-07 0 4.04582e-06)
(1.70455e-05 8.97065e-07 0 3.29083e-07 0 3.98567e-06)
(1.70606e-05 8.82578e-07 0 3.2048e-07 0 3.92619e-06)
(1.70718e-05 8.72203e-07 0 3.1224e-07 0 3.87004e-06)
(1.70701e-05 8.61261e-07 0 3.02949e-07 0 3.81019e-06)
(1.70606e-05 8.49263e-07 0 2.93446e-07 0 3.75094e-06)
(1.70342e-05 8.36116e-07 0 2.83518e-07 0 3.696e-06)
(1.70004e-05 8.24635e-07 0 2.74861e-07 0 3.64108e-06)
(1.69379e-05 8.11607e-07 0 2.65578e-07 0 3.58248e-06)
(1.68738e-05 7.98744e-07 0 2.56541e-07 0 3.53152e-06)
(1.67992e-05 7.87074e-07 0 2.48258e-07 0 3.48085e-06)
(1.67081e-05 7.7434e-07 0 2.39547e-07 0 3.4307e-06)
(1.66144e-05 7.62974e-07 0 2.31831e-07 0 3.38494e-06)
(1.64952e-05 7.49193e-07 0 2.23301e-07 0 3.34196e-06)
(1.63755e-05 7.37946e-07 0 2.14872e-07 0 3.30418e-06)
(1.62321e-05 7.26609e-07 0 2.07253e-07 0 3.26647e-06)
(1.60875e-05 7.17095e-07 0 2.00488e-07 0 3.23097e-06)
(1.59169e-05 7.05578e-07 0 1.93727e-07 0 3.19511e-06)
(1.5749e-05 6.95148e-07 0 1.87838e-07 0 3.16404e-06)
(1.55789e-05 6.83786e-07 0 1.81926e-07 0 3.13452e-06)
(1.54158e-05 6.74831e-07 0 1.76524e-07 0 3.11321e-06)
(1.52562e-05 6.68061e-07 0 1.71517e-07 0 3.09289e-06)
(1.5079e-05 6.59919e-07 0 1.65916e-07 0 3.074e-06)
(1.49011e-05 6.51033e-07 0 1.60839e-07 0 3.05864e-06)
(1.47224e-05 6.41978e-07 0 1.55895e-07 0 3.0449e-06)
(1.45478e-05 6.33664e-07 0 1.51383e-07 0 3.03562e-06)
(1.4376e-05 6.25886e-07 0 1.47509e-07 0 3.02881e-06)
(1.42132e-05 6.18277e-07 0 1.43771e-07 0 3.02233e-06)
(1.40473e-05 6.11303e-07 0 1.40516e-07 0 3.01926e-06)
(1.38918e-05 6.06174e-07 0 1.37683e-07 0 3.01843e-06)
(1.37332e-05 6.01925e-07 0 1.34842e-07 0 3.01999e-06)
(1.35774e-05 5.9802e-07 0 1.32309e-07 0 3.02368e-06)
(1.34286e-05 5.95261e-07 0 1.30462e-07 0 3.02931e-06)
(1.32692e-05 5.9144e-07 0 1.28465e-07 0 3.03541e-06)
(1.31165e-05 5.88346e-07 0 1.26511e-07 0 3.04393e-06)
(1.29721e-05 5.87066e-07 0 1.24998e-07 0 3.05546e-06)
(1.28278e-05 5.8576e-07 0 1.23783e-07 0 3.06705e-06)
(1.26779e-05 5.84386e-07 0 1.22782e-07 0 3.0795e-06)
(1.25418e-05 5.83171e-07 0 1.22257e-07 0 3.09675e-06)
(1.24193e-05 5.82655e-07 0 1.21943e-07 0 3.11787e-06)
(1.23022e-05 5.84047e-07 0 1.22069e-07 0 3.14259e-06)
(1.22028e-05 5.87692e-07 0 1.23388e-07 0 3.17421e-06)
(1.21148e-05 5.92084e-07 0 1.25287e-07 0 3.21077e-06)
(1.40638e-05 8.6013e-07 0 2.26969e-07 0 4.06922e-06)
(1.39577e-05 8.66637e-07 0 2.31653e-07 0 4.11683e-06)
(1.38746e-05 8.76339e-07 0 2.38074e-07 0 4.17142e-06)
(1.38224e-05 8.88893e-07 0 2.45365e-07 0 4.23183e-06)
(1.3793e-05 9.03438e-07 0 2.53582e-07 0 4.29648e-06)
(1.37817e-05 9.18421e-07 0 2.62354e-07 0 4.36307e-06)
(1.37945e-05 9.34327e-07 0 2.71717e-07 0 4.43274e-06)
(1.38184e-05 9.51103e-07 0 2.82261e-07 0 4.49885e-06)
(1.38574e-05 9.68831e-07 0 2.93101e-07 0 4.56227e-06)
(1.39074e-05 9.85967e-07 0 3.03903e-07 0 4.62167e-06)
(1.39718e-05 1.00374e-06 0 3.15653e-07 0 4.67824e-06)
(1.40429e-05 1.02077e-06 0 3.27491e-07 0 4.73028e-06)
(1.41233e-05 1.03716e-06 0 3.39341e-07 0 4.78354e-06)
(1.4218e-05 1.05394e-06 0 3.51295e-07 0 4.83845e-06)
(1.43243e-05 1.07132e-06 0 3.63485e-07 0 4.89161e-06)
(1.44472e-05 1.08946e-06 0 3.76105e-07 0 4.94372e-06)
(1.45724e-05 1.10746e-06 0 3.88698e-07 0 4.99132e-06)
(1.47039e-05 1.1245e-06 0 4.01275e-07 0 5.03582e-06)
(1.48446e-05 1.14108e-06 0 4.14167e-07 0 5.08262e-06)
(1.49935e-05 1.15831e-06 0 4.27301e-07 0 5.12736e-06)
(1.51496e-05 1.17486e-06 0 4.40326e-07 0 5.171e-06)
(1.53143e-05 1.19042e-06 0 4.53247e-07 0 5.21992e-06)
(1.54771e-05 1.20681e-06 0 4.66959e-07 0 5.2682e-06)
(1.56214e-05 1.22267e-06 0 4.81441e-07 0 5.30936e-06)
(1.5771e-05 1.23808e-06 0 4.95784e-07 0 5.34209e-06)
(1.59224e-05 1.2513e-06 0 5.08889e-07 0 5.37172e-06)
(1.60846e-05 1.26426e-06 0 5.2209e-07 0 5.40205e-06)
(1.62533e-05 1.27817e-06 0 5.35226e-07 0 5.43728e-06)
(1.64311e-05 1.29328e-06 0 5.49318e-07 0 5.47136e-06)
(1.66139e-05 1.30786e-06 0 5.62025e-07 0 5.50447e-06)
(1.67966e-05 1.32095e-06 0 5.73583e-07 0 5.53865e-06)
(1.69873e-05 1.33338e-06 0 5.85379e-07 0 5.57385e-06)
(1.71864e-05 1.34621e-06 0 5.96989e-07 0 5.60392e-06)
(1.7387e-05 1.36031e-06 0 6.07954e-07 0 5.62574e-06)
(1.75859e-05 1.37207e-06 0 6.17966e-07 0 5.64168e-06)
(1.77935e-05 1.38191e-06 0 6.26245e-07 0 5.65179e-06)
(1.80016e-05 1.39402e-06 0 6.33858e-07 0 5.65926e-06)
(1.81985e-05 1.40475e-06 0 6.4087e-07 0 5.65977e-06)
(1.8383e-05 1.41191e-06 0 6.47504e-07 0 5.65843e-06)
(1.85614e-05 1.41547e-06 0 6.52193e-07 0 5.66019e-06)
(1.87478e-05 1.42027e-06 0 6.56324e-07 0 5.66153e-06)
(1.89368e-05 1.42537e-06 0 6.59658e-07 0 5.65514e-06)
(1.91169e-05 1.43203e-06 0 6.61617e-07 0 5.64084e-06)
(1.92941e-05 1.43442e-06 0 6.63149e-07 0 5.61798e-06)
(1.94645e-05 1.43221e-06 0 6.63792e-07 0 5.5876e-06)
(1.9641e-05 1.42871e-06 0 6.60674e-07 0 5.55667e-06)
(1.98115e-05 1.42543e-06 0 6.55434e-07 0 5.52022e-06)
(1.99779e-05 1.42235e-06 0 6.50341e-07 0 5.48133e-06)