/*--------------------------------*- C++ -*----------------------------------*\
| =========                 |                                                 |
| \\      /  F ield         | OpenFOAM: The Open Source CFD Toolbox           |
|  \\    /   O peration     | Version:  2306                                  |
|   \\  /    A nd           | Website:  www.openfoam.com                      |
|    \\/     M anipulation  |                                                 |
\*---------------------------------------------------------------------------*/
// * * * * * * * * * * * * * * * * * * * * * * * * * * * * * * * * * * * * * //
FoamFile
{
    version         2;
    format          ascii;
    class           volSymmTensorField;
    location        "6658.70999999028481";
    object          R;
}

dimensions      [ 0 2 -2 0 0 0 0 ];

internalField   nonuniform List<symmTensor> 
14751
(
(2.06774e-05 2.00336e-05 1.36999e-30 2.06857e-05 7.84766e-31 2.06811e-05)
(2.04722e-05 1.9842e-05 9.47693e-32 2.04779e-05 2.36931e-38 2.04762e-05)
(2.03147e-05 1.97029e-05 2.26209e-29 2.03257e-05 2.27437e-27 2.03198e-05)
(2.00975e-05 1.95297e-05 -2.23657e-29 2.01127e-05 9.16205e-29 2.0105e-05)
(1.98912e-05 1.93732e-05 3.77715e-29 1.991e-05 -9.81478e-27 1.98998e-05)
(1.96599e-05 1.92102e-05 -9.18896e-28 1.96829e-05 -3.10126e-28 1.96704e-05)
(1.94216e-05 1.90489e-05 7.10318e-30 1.94475e-05 -1.14151e-28 1.94333e-05)
(1.91754e-05 1.88909e-05 1.08898e-29 1.92043e-05 3.8105e-30 1.91884e-05)
(1.89238e-05 1.87366e-05 -4.28116e-32 1.89553e-05 2.36623e-26 1.89379e-05)
(1.86705e-05 1.85882e-05 1.0596e-29 1.87041e-05 -1.47701e-27 1.86854e-05)
(1.84186e-05 1.84474e-05 -3.22402e-29 1.84539e-05 1.07624e-30 1.84342e-05)
(1.81704e-05 1.83163e-05 -1.68799e-27 1.82071e-05 -2.71187e-28 1.81865e-05)
(1.79277e-05 1.81952e-05 3.33461e-29 1.79654e-05 -1.01137e-33 1.79442e-05)
(1.76937e-05 1.80858e-05 8.02463e-29 1.7732e-05 2.8697e-29 1.77104e-05)
(1.74698e-05 1.79888e-05 1.61457e-27 1.75084e-05 -3.39748e-26 1.74866e-05)
(1.72572e-05 1.7904e-05 7.73886e-28 1.72958e-05 -4.90309e-27 1.72739e-05)
(1.7057e-05 1.78324e-05 -6.1393e-29 1.70954e-05 4.42446e-26 1.70736e-05)
(1.68688e-05 1.77727e-05 6.79775e-29 1.69067e-05 1.19119e-26 1.68851e-05)
(1.66936e-05 1.77253e-05 8.30751e-28 1.6731e-05 -1.17061e-26 1.67096e-05)
(1.65314e-05 1.76894e-05 7.79448e-28 1.65679e-05 2.33922e-28 1.65469e-05)
(1.63827e-05 1.76649e-05 3.09211e-30 1.64182e-05 -6.65294e-27 1.63977e-05)
(1.62467e-05 1.76512e-05 8.42465e-28 1.62811e-05 6.98235e-27 1.62612e-05)
(1.61234e-05 1.76476e-05 -7.01271e-29 1.61566e-05 -4.33718e-29 1.61374e-05)
(1.60127e-05 1.76534e-05 4.1292e-29 1.60446e-05 4.55701e-29 1.60261e-05)
(1.59144e-05 1.76682e-05 -1.05466e-28 1.5945e-05 -4.59605e-29 1.59272e-05)
(1.58276e-05 1.76912e-05 -1.60781e-27 1.58568e-05 -5.87767e-28 1.58398e-05)
(1.57517e-05 1.77217e-05 4.74027e-29 1.57794e-05 -5.28793e-26 1.57632e-05)
(1.5686e-05 1.7759e-05 -4.03939e-28 1.57122e-05 -6.90924e-26 1.56968e-05)
(1.56301e-05 1.78025e-05 1.63712e-29 1.56549e-05 -4.95126e-34 1.56403e-05)
(1.55838e-05 1.78515e-05 -1.32476e-32 1.56071e-05 2.73711e-26 1.55933e-05)
(1.55467e-05 1.79056e-05 -1.71538e-32 1.55685e-05 3.54417e-26 1.55556e-05)
(1.55183e-05 1.79642e-05 1.46301e-32 1.55386e-05 -3.16669e-26 1.55265e-05)
(1.54982e-05 1.80268e-05 -1.05091e-30 1.55169e-05 2.15381e-35 1.55057e-05)
(1.54859e-05 1.8093e-05 -2.04728e-29 1.55031e-05 3.9423e-27 1.54928e-05)
(1.5481e-05 1.81623e-05 -1.1972e-29 1.54968e-05 -3.9704e-26 1.54872e-05)
(1.5483e-05 1.82345e-05 -8.17653e-28 1.54974e-05 5.58576e-27 1.54886e-05)
(1.54914e-05 1.83089e-05 9.2392e-28 1.55044e-05 -1.61569e-27 1.54964e-05)
(1.55061e-05 1.83853e-05 8.01056e-28 1.55176e-05 -1.53671e-26 1.55105e-05)
(1.55268e-05 1.84632e-05 -3.41296e-29 1.5537e-05 3.83888e-34 1.55306e-05)
(1.5553e-05 1.85427e-05 -2.55033e-31 1.55617e-05 2.10392e-36 1.55561e-05)
(1.5584e-05 1.86229e-05 -5.31884e-30 1.55914e-05 1.89242e-27 1.55866e-05)
(1.56202e-05 1.87038e-05 6.12333e-30 1.56263e-05 -1.8964e-27 1.56223e-05)
(1.56618e-05 1.8785e-05 5.15448e-30 1.56664e-05 6.53696e-27 1.56632e-05)
(1.57083e-05 1.88666e-05 -6.04786e-30 1.57116e-05 9.19505e-28 1.57091e-05)
(1.57598e-05 1.89482e-05 -2.47674e-30 1.57618e-05 -2.98362e-30 1.57601e-05)
(1.58157e-05 1.90297e-05 3.04419e-30 1.58164e-05 2.99103e-30 1.58155e-05)
(1.5876e-05 1.91111e-05 1.59992e-29 1.58754e-05 1.43535e-30 1.58752e-05)
(1.59406e-05 1.91921e-05 4.35067e-28 1.59387e-05 -1.54818e-27 1.59393e-05)
(1.60093e-05 1.92725e-05 -1.48018e-29 1.60061e-05 1.10975e-35 1.60074e-05)
(1.6082e-05 1.93523e-05 -3.51379e-31 1.60775e-05 -3.33718e-31 1.60796e-05)
(1.61586e-05 1.94311e-05 4.04865e-31 1.61528e-05 -1.93178e-28 1.61556e-05)
(1.62391e-05 1.95089e-05 6.97057e-31 1.6232e-05 1.94247e-28 1.62356e-05)
(1.63235e-05 1.95856e-05 -8.10728e-31 1.63151e-05 -6.294e-31 1.63194e-05)
(1.64115e-05 1.96612e-05 -1.35009e-29 1.64019e-05 -2.85532e-27 1.6407e-05)
(1.65033e-05 1.97352e-05 -4.50197e-28 1.64923e-05 5.37668e-27 1.64982e-05)
(1.65986e-05 1.98079e-05 1.7934e-29 1.65864e-05 6.51539e-28 1.6593e-05)
(1.66975e-05 1.98788e-05 -3.16885e-30 1.6684e-05 -5.09625e-27 1.66913e-05)
(1.67998e-05 1.99482e-05 8.84297e-32 1.6785e-05 -6.18981e-28 1.67931e-05)
(1.69057e-05 2.00157e-05 -4.00602e-33 1.68896e-05 8.09297e-27 1.68985e-05)
(1.70153e-05 2.00814e-05 3.60467e-29 1.69979e-05 1.12178e-27 1.70075e-05)
(1.7129e-05 2.01455e-05 1.90057e-27 1.71102e-05 -6.35762e-28 1.71206e-05)
(1.72463e-05 2.02078e-05 3.62961e-27 1.72262e-05 1.68045e-27 1.72373e-05)
(1.73672e-05 2.02684e-05 -5.47065e-29 1.73459e-05 6.24875e-30 1.73578e-05)
(1.74912e-05 2.03271e-05 1.22065e-29 1.74686e-05 -1.62065e-27 1.74812e-05)
(1.76179e-05 2.03838e-05 -1.09562e-30 1.75941e-05 1.62816e-27 1.76074e-05)
(1.77479e-05 2.04387e-05 -9.67467e-28 1.7723e-05 -1.43469e-28 1.77369e-05)
(1.78811e-05 2.04917e-05 9.69912e-28 1.7855e-05 1.21662e-28 1.78697e-05)
(1.80173e-05 2.05428e-05 -1.18437e-29 1.79901e-05 -2.37341e-34 1.80054e-05)
(1.81562e-05 2.05919e-05 -2.45335e-29 1.81278e-05 -6.42936e-30 1.81438e-05)
(1.82979e-05 2.06389e-05 2.48913e-29 1.82685e-05 -7.29082e-27 1.8285e-05)
(1.84422e-05 2.06843e-05 -2.60871e-31 1.84118e-05 -6.91125e-36 1.8429e-05)
(1.85891e-05 2.07275e-05 1.43449e-34 1.85577e-05 1.18553e-27 1.85754e-05)
(1.87382e-05 2.07689e-05 -1.30046e-34 1.87059e-05 -1.18223e-27 1.87241e-05)
(1.88892e-05 2.08082e-05 -3.05599e-31 1.8856e-05 -1.05405e-35 1.88748e-05)
(1.90418e-05 2.08453e-05 -1.18486e-28 1.90078e-05 -2.86226e-30 1.9027e-05)
(1.91957e-05 2.08801e-05 5.02862e-29 1.9161e-05 1.37469e-30 1.91806e-05)
(1.93504e-05 2.09125e-05 1.19428e-28 1.93151e-05 -9.76716e-31 1.93351e-05)
(1.95055e-05 2.09424e-05 -9.96735e-29 1.94696e-05 1.52564e-30 1.94899e-05)
(1.966e-05 2.09693e-05 1.18567e-28 1.96237e-05 2.59198e-27 1.96442e-05)
(1.98136e-05 2.09931e-05 5.00151e-29 1.9777e-05 -2.72994e-30 1.97978e-05)
(1.99657e-05 2.10138e-05 -1.19391e-28 1.99289e-05 3.50189e-30 1.99498e-05)
(2.01147e-05 2.10302e-05 -3.71066e-31 2.00779e-05 -7.03919e-27 2.00988e-05)
(2.02605e-05 2.10429e-05 -3.26827e-31 2.02237e-05 8.28397e-27 2.02446e-05)
(2.04011e-05 2.10507e-05 5.02204e-29 2.03646e-05 -9.40258e-27 2.03853e-05)
(2.05358e-05 2.10537e-05 -4.90174e-29 2.04998e-05 7.69564e-30 2.05203e-05)
(2.06633e-05 2.10515e-05 -3.18181e-31 2.0628e-05 -1.01799e-35 2.06481e-05)
(2.07819e-05 2.10432e-05 0 2.07476e-05 0 2.07672e-05)
(2.08898e-05 2.10283e-05 -2.57619e-32 2.08567e-05 -1.21979e-26 2.08757e-05)
(2.09852e-05 2.1006e-05 -1.3081e-29 2.09538e-05 -1.24257e-26 2.09719e-05)
(2.10662e-05 2.09757e-05 1.921e-27 2.10366e-05 -1.1056e-28 2.10537e-05)
(2.11312e-05 2.09372e-05 5.83771e-31 2.1104e-05 3.79185e-28 2.11198e-05)
(2.11764e-05 2.08872e-05 -1.11191e-32 2.11517e-05 -3.75198e-28 2.11661e-05)
(2.12025e-05 2.08273e-05 -1.17524e-29 2.11807e-05 4.39482e-29 2.11936e-05)
(2.12029e-05 2.07531e-05 -8.20514e-29 2.11845e-05 -4.2117e-29 2.11955e-05)
(2.11785e-05 2.06655e-05 4.64793e-29 2.11635e-05 -9.43701e-27 2.11728e-05)
(2.11223e-05 2.05594e-05 -1.00892e-29 2.11114e-05 2.65915e-28 2.11182e-05)
(2.10393e-05 2.04383e-05 -4.70932e-28 2.10323e-05 -6.29034e-27 2.10374e-05)
(2.09121e-05 2.02829e-05 2.90954e-30 2.09076e-05 -4.9176e-31 2.09105e-05)
(2.08108e-05 2.0155e-05 9.16945e-28 2.08062e-05 -1.07064e-29 2.08102e-05)
(1.98293e-05 8.34745e-06 4.60723e-26 1.98385e-05 5.09448e-30 1.98326e-05)
(1.96535e-05 8.29862e-06 1.25193e-28 1.96629e-05 -5.43422e-29 1.96582e-05)
(1.95022e-05 8.25458e-06 8.82739e-26 1.95179e-05 -2.48143e-27 1.95095e-05)
(1.9313e-05 8.19922e-06 1.80893e-27 1.93368e-05 -1.5619e-26 1.93252e-05)
(1.91278e-05 8.14105e-06 -1.73208e-25 1.9157e-05 1.13245e-26 1.91428e-05)
(1.89268e-05 8.07751e-06 -2.10351e-27 1.89633e-05 -5.83965e-28 1.89459e-05)
(1.87204e-05 8.00956e-06 -1.19233e-27 1.87618e-05 -8.44301e-30 1.87422e-05)
(1.85087e-05 7.9385e-06 1.32862e-27 1.85553e-05 -8.18844e-30 1.85334e-05)
(1.82939e-05 7.86476e-06 1.79763e-25 1.83448e-05 7.45163e-26 1.8321e-05)
(1.80785e-05 7.78922e-06 -1.06343e-26 1.81331e-05 -3.22022e-27 1.81076e-05)
(1.78648e-05 7.7127e-06 1.3581e-28 1.79225e-05 -1.09712e-25 1.78957e-05)
(1.76549e-05 7.6361e-06 1.91335e-27 1.77151e-05 -1.2783e-25 1.76873e-05)
(1.74503e-05 7.56003e-06 -2.7849e-29 1.75124e-05 6.99241e-28 1.74838e-05)
(1.72531e-05 7.48502e-06 -1.94418e-27 1.73165e-05 -1.61567e-25 1.72874e-05)
(1.70646e-05 7.41168e-06 -1.4503e-25 1.71286e-05 2.09594e-25 1.70994e-05)
(1.68853e-05 7.34027e-06 -1.39392e-26 1.69496e-05 -1.17618e-26 1.69203e-05)
(1.67165e-05 7.27131e-06 1.58558e-25 1.67805e-05 1.19108e-25 1.67514e-05)
(1.65577e-05 7.2049e-06 3.08164e-26 1.66211e-05 2.4913e-26 1.65924e-05)
(1.64098e-05 7.14142e-06 -3.59482e-26 1.64722e-05 -2.16885e-27 1.6444e-05)
(1.62726e-05 7.08083e-06 -5.82045e-28 1.63338e-05 1.9463e-25 1.63062e-05)
(1.61466e-05 7.02343e-06 -1.63156e-26 1.62062e-05 -2.03487e-25 1.61794e-05)
(1.60314e-05 6.96924e-06 1.63915e-26 1.60892e-05 3.81037e-29 1.60634e-05)
(1.59269e-05 6.91835e-06 -3.66868e-28 1.59827e-05 5.04715e-29 1.59578e-05)
(1.5833e-05 6.87067e-06 1.97733e-34 1.58866e-05 -4.92487e-29 1.58628e-05)
(1.57496e-05 6.82632e-06 7.09759e-29 1.58009e-05 -1.19404e-25 1.57781e-05)
(1.5676e-05 6.78525e-06 -1.31866e-27 1.57249e-05 1.7815e-27 1.57033e-05)
(1.56118e-05 6.74748e-06 -1.37371e-25 1.56583e-05 -8.48422e-26 1.56378e-05)
(1.55565e-05 6.71296e-06 -1.62455e-25 1.56005e-05 6.83655e-26 1.55812e-05)
(1.55098e-05 6.68156e-06 5.63901e-27 1.55513e-05 -1.26283e-25 1.55331e-05)
(1.54715e-05 6.65318e-06 6.83856e-26 1.55104e-05 -2.77208e-26 1.54935e-05)
(1.54412e-05 6.62773e-06 7.92529e-26 1.54776e-05 -3.46353e-26 1.54618e-05)
(1.54185e-05 6.6051e-06 -7.65068e-26 1.54523e-05 3.53374e-26 1.54377e-05)
(1.54031e-05 6.58531e-06 2.08239e-27 1.54344e-05 1.36855e-25 1.54209e-05)
(1.53946e-05 6.56814e-06 5.88828e-27 1.54233e-05 -1.54539e-26 1.54111e-05)
(1.53927e-05 6.55357e-06 -9.07825e-26 1.5419e-05 3.40033e-26 1.54079e-05)
(1.5397e-05 6.5415e-06 1.5416e-26 1.54208e-05 9.89408e-27 1.54108e-05)
(1.54071e-05 6.53194e-06 -6.31613e-27 1.54286e-05 -5.31719e-27 1.54196e-05)
(1.54228e-05 6.52468e-06 -3.80955e-26 1.5442e-05 8.44721e-27 1.5434e-05)
(1.54438e-05 6.5197e-06 9.50412e-28 1.54607e-05 -1.99818e-30 1.54538e-05)
(1.54699e-05 6.51699e-06 1.10919e-28 1.54846e-05 -3.11761e-26 1.54787e-05)
(1.55005e-05 6.51641e-06 4.03722e-27 1.5513e-05 -3.51707e-27 1.55081e-05)
(1.55359e-05 6.51793e-06 -3.9027e-27 1.55462e-05 3.52132e-27 1.55423e-05)
(1.5576e-05 6.52137e-06 1.69566e-26 1.55841e-05 -6.46177e-27 1.55811e-05)
(1.56205e-05 6.52675e-06 1.71303e-27 1.56265e-05 1.5593e-28 1.56244e-05)
(1.56694e-05 6.53399e-06 -5.4321e-29 1.56733e-05 1.45293e-26 1.56722e-05)
(1.57224e-05 6.54312e-06 1.25832e-32 1.57241e-05 -8.84478e-28 1.57239e-05)
(1.57793e-05 6.55411e-06 -1.10533e-28 1.5779e-05 8.80825e-28 1.57797e-05)
(1.58401e-05 6.56694e-06 -5.23634e-27 1.58377e-05 6.04009e-28 1.58394e-05)
(1.59046e-05 6.58163e-06 1.11211e-28 1.59002e-05 -2.91061e-27 1.59027e-05)
(1.59727e-05 6.59807e-06 -1.11938e-29 1.59663e-05 -2.01157e-28 1.59697e-05)
(1.60444e-05 6.61633e-06 -5.24401e-28 1.6036e-05 3.22579e-27 1.60403e-05)
(1.61196e-05 6.63632e-06 5.47743e-28 1.61091e-05 3.05473e-29 1.61143e-05)
(1.61983e-05 6.65807e-06 -1.76338e-28 1.61858e-05 -7.2843e-28 1.61919e-05)
(1.62803e-05 6.68157e-06 -9.44961e-27 1.62658e-05 4.54596e-27 1.62727e-05)
(1.63656e-05 6.70684e-06 2.02939e-26 1.63491e-05 -5.71969e-27 1.63569e-05)
(1.64541e-05 6.73385e-06 1.56172e-27 1.64355e-05 -2.24367e-26 1.64442e-05)
(1.65457e-05 6.76259e-06 -1.98493e-26 1.65251e-05 3.09348e-27 1.65347e-05)
(1.66403e-05 6.79308e-06 -1.43035e-27 1.66177e-05 2.38955e-27 1.66282e-05)
(1.67381e-05 6.8253e-06 3.55711e-26 1.67133e-05 -1.02398e-26 1.67248e-05)
(1.6839e-05 6.85918e-06 3.86494e-27 1.68121e-05 2.93855e-28 1.68245e-05)
(1.69432e-05 6.89474e-06 -6.41567e-27 1.69143e-05 -3.42166e-26 1.69275e-05)
(1.70505e-05 6.93203e-06 7.5312e-28 1.70195e-05 2.96462e-26 1.70336e-05)
(1.71608e-05 6.97101e-06 -9.55261e-29 1.71277e-05 5.40761e-27 1.71428e-05)
(1.72736e-05 7.01178e-06 -8.95425e-27 1.72384e-05 2.34156e-26 1.72544e-05)
(1.73888e-05 7.05428e-06 9.12626e-27 1.73517e-05 2.53837e-26 1.73685e-05)
(1.75066e-05 7.09845e-06 8.62648e-28 1.74674e-05 2.61922e-26 1.74852e-05)
(1.76269e-05 7.14424e-06 -9.78054e-28 1.75857e-05 -5.5665e-27 1.76044e-05)
(1.77495e-05 7.1916e-06 9.52504e-30 1.77064e-05 2.49152e-27 1.77259e-05)
(1.78741e-05 7.2405e-06 -4.24455e-28 1.78291e-05 -3.3642e-26 1.78494e-05)
(1.80007e-05 7.29082e-06 -8.39473e-26 1.79539e-05 2.91655e-27 1.7975e-05)
(1.81293e-05 7.34256e-06 4.85206e-28 1.80806e-05 6.33412e-27 1.81025e-05)
(1.82594e-05 7.39553e-06 1.87442e-26 1.8209e-05 -2.7456e-27 1.82317e-05)
(1.83908e-05 7.4497e-06 -1.8777e-26 1.83388e-05 1.73822e-27 1.83622e-05)
(1.85232e-05 7.50496e-06 6.69753e-29 1.84696e-05 -3.29271e-27 1.84938e-05)
(1.86564e-05 7.56112e-06 1.25506e-28 1.86013e-05 1.40642e-27 1.86261e-05)
(1.87899e-05 7.61808e-06 -2.96944e-31 1.87335e-05 -1.48134e-30 1.87589e-05)
(1.89232e-05 7.67566e-06 -1.26773e-28 1.88655e-05 -1.7419e-27 1.88915e-05)
(1.90559e-05 7.7337e-06 1.48009e-28 1.89972e-05 -3.65985e-27 1.90237e-05)
(1.91873e-05 7.79192e-06 -1.76287e-25 1.91277e-05 8.30982e-27 1.91545e-05)
(1.93169e-05 7.85012e-06 -1.43197e-28 1.92565e-05 1.69744e-26 1.92837e-05)
(1.94439e-05 7.90807e-06 -2.72703e-28 1.93831e-05 -3.25853e-27 1.94104e-05)
(1.95672e-05 7.96521e-06 1.79531e-25 1.95061e-05 9.47534e-27 1.95336e-05)
(1.96865e-05 8.02156e-06 -1.80152e-25 1.96254e-05 -7.40706e-27 1.96529e-05)
(1.98001e-05 8.07648e-06 1.80491e-25 1.97394e-05 4.69013e-26 1.97667e-05)
(1.99075e-05 8.12965e-06 5.32379e-28 1.98475e-05 4.51812e-26 1.98744e-05)
(2.00074e-05 8.18056e-06 -1.056e-29 1.99485e-05 -4.85146e-26 1.99749e-05)
(2.00985e-05 8.22878e-06 -6.85913e-28 2.00411e-05 -5.90398e-30 2.00668e-05)
(2.01793e-05 8.27366e-06 1.83662e-25 2.01239e-05 8.14376e-27 2.01486e-05)
(2.02484e-05 8.31477e-06 1.85772e-25 2.01956e-05 1.47963e-26 2.02191e-05)
(2.03043e-05 8.3513e-06 -1.44926e-27 2.02545e-05 -4.94745e-26 2.02766e-05)
(2.03456e-05 8.38293e-06 -5.18477e-27 2.02996e-05 -5.22422e-26 2.032e-05)
(2.03696e-05 8.40836e-06 5.09182e-27 2.03279e-05 3.43387e-28 2.03462e-05)
(2.03763e-05 8.42736e-06 -6.37107e-28 2.03394e-05 -4.67431e-26 2.03555e-05)
(2.03618e-05 8.43927e-06 2.53076e-28 2.03302e-05 -1.3841e-29 2.03438e-05)
(2.03253e-05 8.44307e-06 1.92473e-25 2.02997e-05 9.47914e-27 2.03106e-05)
(2.0264e-05 8.43896e-06 -4.96795e-27 2.02445e-05 -5.37623e-28 2.02524e-05)
(2.0178e-05 8.4253e-06 1.87294e-25 2.01652e-05 6.08164e-27 2.01702e-05)
(2.0063e-05 8.40182e-06 3.44169e-28 2.00533e-05 8.7621e-29 2.00563e-05)
(1.99554e-05 8.37411e-06 -1.0654e-27 1.99489e-05 8.30876e-29 1.99516e-05)
(1.93362e-05 8.48512e-06 -1.83136e-25 1.9345e-05 -3.46691e-29 1.93397e-05)
(1.91718e-05 8.4308e-06 -3.84541e-27 1.91842e-05 -3.70194e-30 1.91788e-05)
(1.90173e-05 8.37548e-06 -1.08589e-25 1.90405e-05 1.73558e-26 1.90286e-05)
(1.88386e-05 8.31606e-06 -5.15178e-25 1.88764e-05 1.52835e-26 1.88579e-05)
(1.86606e-05 8.25045e-06 2.33271e-25 1.87085e-05 1.46901e-26 1.86846e-05)
(1.84734e-05 8.1835e-06 -1.48606e-26 1.85338e-05 -1.14919e-25 1.85038e-05)
(1.82822e-05 8.11214e-06 4.38544e-29 1.83521e-05 1.59017e-28 1.83173e-05)
(1.80883e-05 8.03896e-06 4.26648e-27 1.81677e-05 -2.12223e-29 1.81282e-05)
(1.78934e-05 7.96423e-06 7.94534e-25 1.79812e-05 -3.15845e-25 1.79375e-05)
(1.76995e-05 7.88853e-06 -3.80348e-26 1.77944e-05 -5.31803e-27 1.77471e-05)
(1.75084e-05 7.81271e-06 -8.92641e-25 1.76096e-05 -1.16071e-25 1.75592e-05)
(1.73221e-05 7.73757e-06 -9.21305e-25 1.74284e-05 1.22986e-25 1.73754e-05)
(1.71418e-05 7.66375e-06 -2.51399e-27 1.72521e-05 -3.01428e-25 1.71971e-05)
(1.69688e-05 7.59146e-06 -9.45082e-25 1.70822e-05 1.42572e-25 1.70256e-05)
(1.68042e-05 7.52137e-06 1.13665e-24 1.69196e-05 -1.00658e-25 1.6862e-05)
(1.66484e-05 7.45351e-06 -5.7363e-26 1.67649e-05 3.65352e-25 1.67067e-05)
(1.65021e-05 7.38844e-06 6.04582e-25 1.66189e-05 -2.3836e-25 1.65606e-05)
(1.63652e-05 7.32614e-06 9.23348e-26 1.64815e-05 4.08724e-25 1.64234e-05)
(1.62382e-05 7.2669e-06 1.08307e-26 1.63533e-05 -8.82327e-27 1.62957e-05)
(1.61208e-05 7.21063e-06 7.93783e-25 1.62341e-05 -2.20736e-25 1.61775e-05)
(1.60134e-05 7.15757e-06 -8.12188e-25 1.61244e-05 2.65208e-25 1.60689e-05)
(1.59157e-05 7.10774e-06 1.3114e-26 1.60238e-05 -3.69577e-26 1.59697e-05)
(1.58275e-05 7.06122e-06 -1.33413e-29 1.59324e-05 2.9701e-26 1.58799e-05)
(1.57487e-05 7.01789e-06 -7.68522e-27 1.585e-05 -2.96626e-26 1.57993e-05)
(1.56791e-05 6.97774e-06 -4.13224e-25 1.57766e-05 7.79586e-26 1.57278e-05)
(1.56183e-05 6.94085e-06 2.83441e-27 1.57117e-05 2.96811e-26 1.56649e-05)
(1.55659e-05 6.90717e-06 -2.86124e-25 1.5655e-05 2.03575e-25 1.56103e-05)
(1.55215e-05 6.87661e-06 2.07317e-25 1.56062e-05 -1.55456e-25 1.55637e-05)
(1.54848e-05 6.8491e-06 -4.13419e-25 1.5565e-05 1.14194e-25 1.55248e-05)
(1.54556e-05 6.82454e-06 -7.5639e-26 1.55313e-05 2.04149e-25 1.54933e-05)
(1.54335e-05 6.80281e-06 -9.91753e-26 1.55046e-05 -3.29717e-25 1.54689e-05)
(1.54182e-05 6.78385e-06 1.15701e-25 1.54847e-05 6.2816e-26 1.54513e-05)
(1.54094e-05 6.76755e-06 4.2131e-25 1.54714e-05 -1.14522e-25 1.54403e-05)
(1.54069e-05 6.75389e-06 -5.22341e-26 1.54643e-05 -7.1421e-27 1.54355e-05)
(1.54102e-05 6.74271e-06 1.05244e-25 1.54632e-05 -7.44723e-26 1.54366e-05)
(1.54192e-05 6.73406e-06 1.97873e-26 1.54677e-05 -1.5509e-26 1.54433e-05)
(1.54334e-05 6.72782e-06 -1.12557e-26 1.54776e-05 2.76175e-27 1.54554e-05)
(1.54528e-05 6.7238e-06 2.91825e-26 1.54927e-05 -9.06142e-26 1.54727e-05)
(1.54771e-05 6.7221e-06 -2.85912e-27 1.55127e-05 -1.36193e-25 1.54948e-05)
(1.55059e-05 6.72258e-06 -1.00627e-25 1.55373e-05 9.11991e-26 1.55215e-05)
(1.55391e-05 6.72524e-06 -9.0599e-27 1.55663e-05 9.55485e-28 1.55526e-05)
(1.55765e-05 6.72994e-06 1.12235e-26 1.55997e-05 -9.63451e-28 1.5588e-05)
(1.56182e-05 6.73657e-06 -2.05365e-26 1.56373e-05 -9.33524e-27 1.56277e-05)
(1.56639e-05 6.7451e-06 1.47704e-27 1.5679e-05 -1.18804e-27 1.56714e-05)
(1.57137e-05 6.75553e-06 5.04919e-26 1.57248e-05 -1.28965e-26 1.57192e-05)
(1.57671e-05 6.76788e-06 -3.80187e-27 1.57742e-05 -1.11743e-28 1.57706e-05)
(1.58242e-05 6.78206e-06 3.03536e-27 1.58273e-05 2.8479e-26 1.58257e-05)
(1.58847e-05 6.79805e-06 3.42384e-27 1.5884e-05 2.60024e-27 1.58843e-05)
(1.59488e-05 6.81589e-06 -1.14118e-26 1.59442e-05 3.01148e-27 1.59464e-05)
(1.60162e-05 6.83553e-06 -3.50801e-28 1.60077e-05 7.72784e-29 1.60119e-05)
(1.60868e-05 6.85697e-06 1.32219e-26 1.60745e-05 -3.33338e-27 1.60807e-05)
(1.61608e-05 6.88017e-06 -2.67504e-28 1.61446e-05 2.07359e-27 1.61527e-05)
(1.62378e-05 6.90514e-06 -2.61287e-27 1.62178e-05 -1.62282e-27 1.62278e-05)
(1.63181e-05 6.93188e-06 1.89108e-26 1.62941e-05 4.25847e-27 1.63061e-05)
(1.64012e-05 6.96036e-06 -2.87588e-26 1.63733e-05 -1.08319e-26 1.63873e-05)
(1.64872e-05 6.99061e-06 -1.0991e-25 1.64554e-05 2.33067e-26 1.64714e-05)
(1.65762e-05 7.02259e-06 1.68175e-26 1.65404e-05 4.32359e-27 1.65583e-05)
(1.66679e-05 7.05634e-06 1.0954e-26 1.66281e-05 1.09334e-27 1.6648e-05)
(1.67623e-05 7.09172e-06 -5.49621e-26 1.67186e-05 -4.47423e-26 1.67405e-05)
(1.68595e-05 7.12873e-06 -1.51414e-27 1.68118e-05 -3.73469e-26 1.68357e-05)
(1.69595e-05 7.16744e-06 -2.12141e-25 1.69077e-05 2.7333e-26 1.69337e-05)
(1.70622e-05 7.20775e-06 2.17702e-25 1.70064e-05 -2.41718e-26 1.70344e-05)
(1.71673e-05 7.24968e-06 3.64649e-26 1.71076e-05 5.98199e-26 1.71375e-05)
(1.72747e-05 7.29335e-06 1.9419e-25 1.7211e-05 -2.64065e-26 1.72429e-05)
(1.7384e-05 7.33864e-06 2.18884e-25 1.73164e-05 -2.47613e-26 1.73503e-05)
(1.74956e-05 7.3854e-06 2.43106e-25 1.74241e-05 -1.51952e-26 1.746e-05)
(1.7609e-05 7.4336e-06 -5.1858e-26 1.75337e-05 -6.00178e-27 1.75715e-05)
(1.77242e-05 7.48328e-06 2.3323e-26 1.76451e-05 4.81815e-27 1.76848e-05)
(1.78408e-05 7.53428e-06 -4.47928e-25 1.77581e-05 -4.64384e-26 1.77996e-05)
(1.79589e-05 7.58646e-06 4.1742e-26 1.78726e-05 7.40448e-26 1.79159e-05)
(1.80781e-05 7.63975e-06 1.0273e-25 1.79884e-05 3.61274e-27 1.80334e-05)
(1.81982e-05 7.69406e-06 -5.19405e-26 1.81053e-05 -4.78787e-27 1.81519e-05)
(1.83189e-05 7.74924e-06 5.25404e-26 1.82229e-05 5.57356e-27 1.82711e-05)
(1.84398e-05 7.80513e-06 -1.05316e-25 1.83409e-05 -4.14356e-27 1.83905e-05)
(1.85607e-05 7.86156e-06 5.29209e-26 1.8459e-05 1.98531e-27 1.85101e-05)
(1.8681e-05 7.91836e-06 -2.01918e-28 1.85768e-05 -1.88569e-27 1.86291e-05)
(1.88004e-05 7.97537e-06 -4.73397e-25 1.8694e-05 5.85491e-27 1.87474e-05)
(1.89183e-05 8.03224e-06 9.53891e-25 1.88099e-05 4.9033e-27 1.88643e-05)
(1.9034e-05 8.08896e-06 -7.66063e-25 1.8924e-05 -3.26353e-26 1.89792e-05)
(1.9147e-05 8.1449e-06 -9.68147e-25 1.90356e-05 -1.44632e-26 1.90915e-05)
(1.92566e-05 8.20008e-06 1.11037e-25 1.91443e-05 -4.7604e-26 1.92007e-05)
(1.93618e-05 8.25388e-06 -3.08681e-25 1.9249e-05 -4.82845e-26 1.93056e-05)
(1.94619e-05 8.30612e-06 2.01252e-25 1.93492e-05 5.76002e-26 1.94057e-05)
(1.95559e-05 8.35626e-06 -1.19318e-24 1.94439e-05 -2.12723e-26 1.95e-05)
(1.96428e-05 8.40392e-06 -1.06635e-24 1.9532e-05 4.874e-26 1.95876e-05)
(1.97218e-05 8.44865e-06 1.06441e-24 1.96131e-05 4.1784e-26 1.96676e-05)
(1.97915e-05 8.48998e-06 3.41482e-27 1.96856e-05 -9.9761e-26 1.97387e-05)
(1.98508e-05 8.52723e-06 -1.46727e-25 1.97486e-05 -8.65159e-26 1.97998e-05)
(1.98985e-05 8.56005e-06 -2.69262e-25 1.98009e-05 1.48091e-26 1.98498e-05)
(1.99333e-05 8.58776e-06 1.00138e-24 1.98412e-05 5.49799e-26 1.98873e-05)
(1.99541e-05 8.61011e-06 1.07263e-24 1.98687e-05 4.41388e-26 1.99114e-05)
(1.99588e-05 8.62603e-06 -7.15428e-27 1.9881e-05 5.50907e-28 1.992e-05)
(1.99469e-05 8.63484e-06 1.05623e-24 1.98776e-05 1.40555e-25 1.99123e-05)
(1.99165e-05 8.63711e-06 3.25503e-27 1.98565e-05 -4.9874e-28 1.98864e-05)
(1.98656e-05 8.63044e-06 -2.28291e-25 1.98158e-05 1.42976e-26 1.98408e-05)
(1.97941e-05 8.61697e-06 1.47993e-26 1.97545e-05 7.87967e-29 1.97742e-05)
(1.96993e-05 8.59259e-06 -2.09638e-25 1.96711e-05 8.66348e-27 1.96854e-05)
(1.95843e-05 8.56073e-06 -4.10412e-27 1.95621e-05 5.62238e-30 1.95727e-05)
(1.9465e-05 8.51711e-06 -4.09366e-27 1.94512e-05 -5.00568e-29 1.9459e-05)
(1.89753e-05 8.53646e-06 1.46671e-25 1.8986e-05 3.42156e-29 1.89797e-05)
(1.88124e-05 8.47549e-06 1.20489e-27 1.88327e-05 -4.23688e-29 1.88235e-05)
(1.86523e-05 8.41089e-06 1.35401e-24 1.86875e-05 5.29047e-27 1.86694e-05)
(1.84765e-05 8.34664e-06 5.91202e-25 1.85333e-05 2.2261e-26 1.85052e-05)
(1.83005e-05 8.27512e-06 -7.97646e-27 1.83722e-05 7.57593e-26 1.83363e-05)
(1.81205e-05 8.20555e-06 -2.64274e-24 1.82099e-05 1.10088e-25 1.81653e-05)
(1.79381e-05 8.13152e-06 6.85711e-27 1.80417e-05 8.29215e-30 1.799e-05)
(1.77556e-05 8.05677e-06 -1.76957e-26 1.7873e-05 1.14715e-28 1.78143e-05)
(1.75741e-05 7.98177e-06 -3.61287e-24 1.77037e-05 7.7649e-26 1.76389e-05)
(1.73953e-05 7.90681e-06 -6.16086e-26 1.75356e-05 2.36776e-25 1.74655e-05)
(1.72209e-05 7.83253e-06 -1.26551e-24 1.73704e-05 3.83351e-25 1.72956e-05)
(1.70524e-05 7.76005e-06 1.02681e-24 1.72095e-05 1.85798e-25 1.71309e-05)
(1.68908e-05 7.68954e-06 -2.48297e-24 1.70541e-05 5.76934e-25 1.69723e-05)
(1.67371e-05 7.62139e-06 1.02356e-24 1.69051e-05 2.32281e-25 1.6821e-05)
(1.65921e-05 7.55591e-06 -9.9042e-25 1.67633e-05 4.2651e-26 1.66776e-05)
(1.64559e-05 7.49294e-06 2.33226e-24 1.66289e-05 -3.22806e-25 1.65423e-05)
(1.63292e-05 7.43333e-06 -9.76797e-25 1.65028e-05 -5.11255e-25 1.64158e-05)
(1.62116e-05 7.37669e-06 2.42998e-24 1.63847e-05 -4.51697e-25 1.6298e-05)
(1.61032e-05 7.32324e-06 -1.77428e-25 1.62747e-05 -4.27563e-25 1.61888e-05)
(1.60041e-05 7.27299e-06 -1.06168e-24 1.61732e-05 -2.87093e-25 1.60885e-05)
(1.59142e-05 7.22596e-06 1.21849e-24 1.60799e-05 -1.58138e-25 1.59969e-05)
(1.58333e-05 7.18221e-06 -1.46611e-25 1.5995e-05 -2.2897e-27 1.59139e-05)
(1.57612e-05 7.14172e-06 1.26132e-25 1.59181e-05 4.85966e-25 1.58395e-05)
(1.56977e-05 7.10438e-06 -1.23452e-25 1.58494e-05 4.90973e-25 1.57733e-05)
(1.56425e-05 7.07015e-06 3.37483e-25 1.57885e-05 1.37719e-25 1.57153e-05)
(1.55953e-05 7.03907e-06 1.29255e-25 1.57353e-05 2.59589e-27 1.56651e-05)
(1.55556e-05 7.01108e-06 4.94209e-25 1.56893e-05 1.50075e-25 1.56223e-05)
(1.55234e-05 6.98609e-06 -1.06539e-24 1.56505e-05 -3.92882e-25 1.55867e-05)
(1.5498e-05 6.96402e-06 4.83889e-25 1.56185e-05 1.48056e-25 1.55581e-05)
(1.54793e-05 6.94471e-06 9.64265e-25 1.55931e-05 -1.65543e-25 1.5536e-05)
(1.54672e-05 6.92813e-06 -1.12924e-24 1.5574e-05 3.09682e-25 1.55204e-05)
(1.5461e-05 6.91419e-06 7.20319e-26 1.55611e-05 -6.8706e-26 1.55109e-05)
(1.54608e-05 6.90277e-06 -4.43707e-25 1.5554e-05 -2.12092e-25 1.55072e-05)
(1.54662e-05 6.89383e-06 1.05093e-28 1.55526e-05 3.81923e-26 1.55092e-05)
(1.54768e-05 6.88731e-06 -5.21637e-25 1.55565e-05 6.71839e-26 1.55165e-05)
(1.54926e-05 6.88318e-06 -2.05128e-26 1.55656e-05 2.55787e-25 1.5529e-05)
(1.55132e-05 6.8813e-06 -7.52518e-27 1.55796e-05 5.38393e-27 1.55462e-05)
(1.55383e-05 6.88163e-06 -4.69286e-25 1.55983e-05 1.12738e-25 1.55682e-05)
(1.5568e-05 6.88412e-06 -5.34331e-25 1.56216e-05 1.08337e-25 1.55946e-05)
(1.56018e-05 6.88875e-06 3.80015e-25 1.56491e-05 -5.80324e-27 1.56253e-05)
(1.56396e-05 6.89548e-06 7.69136e-27 1.56806e-05 -2.58704e-27 1.566e-05)
(1.56813e-05 6.90413e-06 -1.54112e-26 1.57161e-05 2.39727e-27 1.56986e-05)
(1.57268e-05 6.91471e-06 2.91001e-28 1.57555e-05 2.00526e-27 1.57411e-05)
(1.5776e-05 6.92712e-06 -1.09351e-27 1.57987e-05 2.29477e-30 1.57873e-05)
(1.58289e-05 6.94135e-06 -5.51608e-26 1.58455e-05 -2.05616e-26 1.58371e-05)
(1.58851e-05 6.95748e-06 3.20523e-27 1.58957e-05 1.14915e-27 1.58904e-05)
(1.59446e-05 6.97536e-06 1.3105e-25 1.59493e-05 -2.7146e-26 1.59469e-05)
(1.60073e-05 6.99493e-06 -1.86452e-27 1.60061e-05 -1.6783e-27 1.60066e-05)
(1.60732e-05 7.01628e-06 1.39149e-26 1.60661e-05 1.83783e-26 1.60696e-05)
(1.61422e-05 7.03941e-06 -1.1299e-28 1.61293e-05 -1.52207e-28 1.61357e-05)
(1.62142e-05 7.06425e-06 -1.76674e-26 1.61954e-05 -3.85429e-27 1.62048e-05)
(1.62892e-05 7.09082e-06 1.17525e-26 1.62646e-05 9.9161e-28 1.62769e-05)
(1.6367e-05 7.11912e-06 -7.89816e-27 1.63366e-05 2.2523e-27 1.63518e-05)
(1.64477e-05 7.14915e-06 -9.06736e-29 1.64113e-05 -9.53705e-27 1.64296e-05)
(1.65311e-05 7.18081e-06 -1.36226e-26 1.64888e-05 -3.6995e-26 1.651e-05)
(1.66171e-05 7.21422e-06 1.45219e-25 1.65689e-05 3.20516e-26 1.6593e-05)
(1.67057e-05 7.24923e-06 -1.7677e-26 1.66515e-05 -1.04971e-26 1.66786e-05)
(1.67967e-05 7.28589e-06 -2.24654e-27 1.67365e-05 -3.00983e-27 1.67667e-05)
(1.68902e-05 7.32414e-06 -2.44334e-25 1.6824e-05 5.5106e-26 1.68572e-05)
(1.6986e-05 7.3639e-06 -2.70049e-25 1.69138e-05 3.28795e-26 1.695e-05)
(1.70842e-05 7.40515e-06 2.01793e-25 1.70059e-05 4.17337e-26 1.70451e-05)
(1.71846e-05 7.44792e-06 -1.99861e-25 1.71003e-05 -4.71486e-26 1.71425e-05)
(1.72869e-05 7.49216e-06 5.58536e-25 1.71967e-05 -5.45822e-26 1.7242e-05)
(1.73912e-05 7.53792e-06 -2.75627e-25 1.7295e-05 -2.69741e-26 1.73432e-05)
(1.74971e-05 7.58504e-06 -2.37424e-25 1.7395e-05 -4.18991e-26 1.74462e-05)
(1.76045e-05 7.63344e-06 -1.72194e-25 1.74966e-05 -4.10337e-26 1.75507e-05)
(1.77133e-05 7.68306e-06 -6.43738e-26 1.75997e-05 1.04818e-25 1.76567e-05)
(1.78232e-05 7.73384e-06 6.43775e-26 1.77041e-05 -8.11633e-27 1.77639e-05)
(1.79341e-05 7.78564e-06 -8.00542e-25 1.78095e-05 1.11456e-25 1.7872e-05)
(1.80456e-05 7.83832e-06 1.23811e-24 1.79158e-05 -5.52817e-26 1.79809e-05)
(1.81577e-05 7.89175e-06 6.37213e-26 1.80229e-05 -9.21739e-27 1.80905e-05)
(1.82698e-05 7.94575e-06 -6.82216e-26 1.81302e-05 -2.46952e-27 1.82002e-05)
(1.83817e-05 8.00025e-06 1.39001e-25 1.82376e-05 -2.32673e-27 1.83099e-05)
(1.84931e-05 8.05505e-06 -1.38766e-25 1.83447e-05 -5.43273e-26 1.84192e-05)
(1.86035e-05 8.10986e-06 1.41371e-25 1.84512e-05 1.07648e-27 1.85276e-05)
(1.87126e-05 8.16459e-06 -1.40474e-25 1.85567e-05 4.98447e-29 1.86349e-05)
(1.88198e-05 8.21904e-06 1.89361e-24 1.86607e-05 -4.134e-27 1.87405e-05)
(1.89244e-05 8.27277e-06 -2.28802e-24 1.87627e-05 5.23625e-27 1.88439e-05)
(1.90262e-05 8.32574e-06 3.40996e-24 1.88622e-05 3.02075e-27 1.89444e-05)
(1.91241e-05 8.37737e-06 1.06364e-24 1.89584e-05 -2.52643e-26 1.90415e-05)
(1.92177e-05 8.4276e-06 2.53721e-24 1.9051e-05 5.08363e-26 1.91346e-05)
(1.9306e-05 8.47584e-06 2.5679e-24 1.91389e-05 3.88798e-26 1.92227e-05)
(1.93882e-05 8.52181e-06 -2.57907e-24 1.92216e-05 -5.82114e-26 1.93052e-05)
(1.94635e-05 8.56514e-06 1.09893e-24 1.92982e-05 -6.80763e-26 1.93811e-05)
(1.9531e-05 8.6049e-06 -1.5049e-24 1.9368e-05 -1.48893e-25 1.94498e-05)
(1.95897e-05 8.64167e-06 -1.12776e-24 1.94301e-05 -2.22431e-26 1.95102e-05)
(1.96388e-05 8.67412e-06 2.64903e-24 1.94838e-05 9.76835e-26 1.95616e-05)
(1.9677e-05 8.70187e-06 2.68315e-24 1.95277e-05 1.83498e-25 1.96026e-05)
(1.97035e-05 8.72506e-06 8.87108e-26 1.95613e-05 -1.27251e-25 1.96326e-05)
(1.97172e-05 8.74248e-06 -1.3061e-24 1.95833e-05 6.8197e-26 1.96505e-05)
(1.97171e-05 8.75432e-06 -1.08366e-24 1.95933e-05 1.82046e-25 1.96554e-05)
(1.97019e-05 8.75966e-06 5.61145e-27 1.95893e-05 -1.06158e-25 1.96458e-05)
(1.96706e-05 8.75774e-06 -3.9206e-24 1.95707e-05 -2.40196e-26 1.96209e-05)
(1.96226e-05 8.74901e-06 9.11004e-27 1.95362e-05 -4.01632e-29 1.95794e-05)