/*--------------------------------*- C++ -*----------------------------------*\
| =========                 |                                                 |
| \\      /  F ield         | OpenFOAM: The Open Source CFD Toolbox           |
|  \\    /   O peration     | Version:  2306                                  |
|   \\  /    A nd           | Website:  www.openfoam.com                      |
|    \\/     M anipulation  |                                                 |
\*---------------------------------------------------------------------------*/
// * * * * * * * * * * * * * * * * * * * * * * * * * * * * * * * * * * * * * //
FoamFile
{
    version         2;
    format          ascii;
    class           volSymmTensorField;
    location        "0";
    object          S;
}

dimensions      [ 0 0 -1 0 0 0 0 ];

internalField   nonuniform List<symmTensor> 
14751
(
(0.000121663 -0.670841 -4.58752e-26 -0.000154593 -2.62785e-26 0)
(0.000134416 -0.668656 -3.19364e-27 -5.74043e-05 -7.98437e-34 0)
(0.000171196 -0.66784 -7.66749e-25 -0.000201127 -7.70911e-23 5.42982e-52)
(0.000254362 -0.664334 7.60807e-25 -0.000260926 -3.11662e-24 -5.42961e-52)
(0.000293943 -0.66102 -1.28878e-24 -0.000345559 3.34884e-22 2.90384e-47)
(0.000361183 -0.656188 3.1388e-23 -0.000424489 1.05934e-23 -9.92024e-46)
(0.000401017 -0.650814 -2.42683e-25 -0.000483833 3.90001e-24 0)
(0.000443701 -0.644696 -3.7164e-25 -0.000543419 -1.30042e-25 -2.04687e-49)
(0.000478327 -0.637968 1.4577e-27 -0.000592713 -8.05686e-22 -7.68676e-50)
(0.000505505 -0.630736 -3.59544e-25 -0.000633073 5.0118e-23 -3.29027e-49)
(0.000526397 -0.623101 1.08898e-24 -0.000665325 -3.63524e-26 6.98161e-47)
(0.000541631 -0.615172 5.66932e-23 -0.000690374 9.10813e-24 -1.72093e-45)
(0.000550436 -0.60702 -1.11248e-24 -0.000707283 3.3741e-29 0)
(0.00055283 -0.598756 -2.65667e-24 -0.000715507 -9.50057e-25 -1.6997e-46)
(0.000550215 -0.590435 -5.29941e-23 -0.000718136 1.11513e-21 2.03108e-43)
(0.000542787 -0.58215 -2.51629e-23 -0.000712586 1.59424e-22 1.45075e-44)
(0.000532463 -0.573965 1.97603e-24 -0.000704614 -1.42408e-21 -2.31319e-50)
(0.000518995 -0.565917 -2.16453e-24 -0.000690044 -3.79296e-22 2.31325e-50)
(0.000502447 -0.558081 -2.61562e-23 -0.000672914 3.68567e-22 3.35373e-44)
(0.00048397 -0.550465 -2.42551e-23 -0.000651692 -7.27927e-24 -6.60989e-46)
(0.000463453 -0.543125 -9.507e-26 -0.000628276 2.04551e-22 0)
(0.000442396 -0.536075 -2.5586e-23 -0.000603217 -2.12057e-22 -1.94041e-44)
(0.000419901 -0.52934 2.10347e-24 -0.000576481 1.30094e-24 1.10417e-46)
(0.000396776 -0.522925 -1.22314e-24 -0.000548457 -1.34986e-24 -3.73412e-50)
(0.00037342 -0.516845 3.08518e-24 -0.000520007 1.34447e-24 3.73376e-50)
(0.000350403 -0.511109 4.64505e-23 -0.000491343 1.69809e-23 -3.08611e-45)
(0.000327939 -0.505722 -1.35272e-24 -0.0004633 1.50901e-21 0)
(0.000305499 -0.500682 1.13883e-23 -0.000434807 1.94793e-21 -8.86209e-44)
(0.000283497 -0.495985 -4.56108e-25 -0.000406967 1.37944e-29 0)
(0.000261659 -0.491619 3.64831e-28 -0.000379121 -7.53783e-22 0)
(0.000240427 -0.487577 4.67106e-28 -0.0003519 -9.65094e-22 0)
(0.000219853 -0.48385 -3.94049e-28 -0.00032523 8.5292e-22 0)
(0.00019994 -0.480431 2.80077e-26 -0.000299343 -5.7401e-31 0)
(0.000180634 -0.477307 5.40087e-25 -0.000274137 -1.04001e-22 -8.32109e-51)
(0.000162155 -0.474471 3.12756e-25 -0.000249909 1.03723e-21 8.321e-51)
(0.00014449 -0.471917 2.11612e-23 -0.000226374 -1.44562e-22 1.31535e-44)
(0.000127497 -0.469632 -2.3699e-23 -0.000203699 4.14433e-23 3.772e-45)
(0.000110768 -0.467607 -2.03739e-23 -0.000181465 3.90843e-22 3.55631e-44)
(9.50384e-05 -0.465829 8.61093e-25 -0.000160177 -9.68554e-30 0)
(7.98446e-05 -0.4643 6.38591e-27 -0.000139436 -5.26812e-32 0)
(6.50056e-05 -0.463011 1.3224e-25 -0.000119147 -4.70504e-23 -3.44648e-52)
(5.0294e-05 -0.461946 -1.51234e-25 -9.92735e-05 4.68374e-23 3.4468e-52)
(3.55754e-05 -0.461098 -1.26522e-25 -7.91711e-05 -1.60456e-22 -2.89242e-52)
(2.13248e-05 -0.460457 1.47604e-25 -5.99034e-05 -2.24414e-23 2.89254e-52)
(7.30011e-06 -0.460024 6.01303e-26 -4.06687e-05 7.24363e-26 -5.87932e-53)
(-6.17312e-06 -0.459795 -7.35537e-26 -2.20681e-05 -7.2269e-26 5.87938e-53)
(-1.95395e-05 -0.459774 -3.84908e-25 -3.5672e-06 -3.45316e-26 -1.43268e-48)
(-3.24582e-05 -0.459954 -1.04268e-23 1.43579e-05 3.71034e-23 1.68944e-45)
(-4.52197e-05 -0.460329 3.53545e-25 3.21238e-05 -2.65068e-31 0)
(-5.78147e-05 -0.4609 8.36856e-27 4.96969e-05 7.94795e-27 -4.3773e-55)
(-7.04081e-05 -0.461662 -9.61918e-27 6.73061e-05 4.5897e-24 4.37734e-55)
(-8.30967e-05 -0.462616 -1.65294e-26 8.49329e-05 -4.6062e-24 -1.05973e-54)
(-9.56901e-05 -0.463761 1.91969e-26 0.00010254 1.49033e-26 1.05972e-54)
(-0.000108175 -0.465097 3.19373e-25 0.000120094 6.75445e-23 -1.15551e-48)
(-0.000120771 -0.466628 1.06447e-23 0.000137783 -1.27129e-22 5.78252e-45)
(-0.000133415 -0.468354 -4.24047e-25 0.000155449 -1.54055e-23 2.24986e-48)
(-0.000146176 -0.470276 7.49657e-26 0.000173387 1.20563e-22 1.7564e-50)
(-0.000158989 -0.472397 -2.09412e-27 0.000191353 1.46582e-23 0)
(-0.000172243 -0.474717 9.50118e-29 0.000209843 -1.91943e-22 0)
(-0.000185778 -0.477234 -8.56647e-25 0.000228288 -2.6659e-23 0)
(-0.000199561 -0.479952 -4.52798e-23 0.000247358 1.51466e-23 2.75432e-45)
(-0.000213055 -0.482871 -8.67306e-23 0.000265732 -4.01548e-23 -1.45713e-44)
(-0.000226409 -0.485999 1.31176e-24 0.000284292 -1.49834e-25 -5.21765e-47)
(-0.000239464 -0.489345 -2.93854e-25 0.000302701 3.90147e-23 -3.17009e-49)
(-0.000252665 -0.492908 2.64936e-26 0.000320959 -3.93711e-23 2.0741e-47)
(-0.000266312 -0.496687 2.35107e-23 0.000339606 3.48648e-24 -3.4072e-46)
(-0.000279842 -0.500681 -2.36982e-23 0.000358054 -2.9726e-24 -2.68905e-46)
(-0.000293278 -0.504895 2.91093e-25 0.00037647 5.8333e-30 0)
(-0.000306588 -0.509326 6.06821e-25 0.000394535 1.59026e-25 1.24046e-51)
(-0.000320063 -0.513974 -6.1987e-25 0.000412698 1.81564e-22 -1.24047e-51)
(-0.000333318 -0.518835 6.54358e-27 0.000430411 1.73358e-31 0)
(-0.00034641 -0.523907 -3.62581e-30 0.000447973 -2.99654e-23 0)
(-0.000359059 -0.529187 3.31353e-30 0.000464868 3.0123e-23 0)
(-0.000371379 -0.534669 7.85243e-27 0.000481366 2.70839e-31 0)
(-0.000383481 -0.540352 3.0714e-24 0.000497376 7.41955e-26 -8.59966e-49)
(-0.000394762 -0.54623 -1.3155e-24 0.000512716 -3.59622e-26 -1.78257e-49)
(-0.000405541 -0.552288 -3.15402e-24 0.000526839 2.57946e-26 2.59017e-49)
(-0.000415441 -0.558528 2.65826e-24 0.00054064 -4.06882e-26 -4.97427e-51)
(-0.000424405 -0.564922 -3.19423e-24 0.000552327 -6.98288e-23 -7.9484e-46)
(-0.000432659 -0.571474 -1.36151e-24 0.00056474 7.43145e-26 8.08138e-49)
(-0.000438923 -0.578159 3.28485e-24 0.000572846 -9.63487e-26 1.07732e-48)
(-0.000443986 -0.584945 1.0321e-26 0.000581639 1.95792e-22 0)
(-0.000446955 -0.591831 9.19199e-27 0.000586573 -2.32986e-22 0)
(-0.000447552 -0.598762 -1.42846e-24 0.000589808 2.67445e-22 -5.14654e-51)
(-0.000445908 -0.605723 1.41025e-24 0.000589608 -2.21406e-25 5.14665e-51)
(-0.000440748 -0.61266 9.26e-27 0.000585852 2.96264e-31 0)
(-0.000431895 -0.619519 0 0.000576922 0 0)
(-0.000419289 -0.626251 7.67225e-28 0.000564514 3.6327e-22 0)
(-0.000402044 -0.632794 3.94058e-25 0.000545175 3.74317e-22 0)
(-0.000380563 -0.63908 -5.85281e-23 0.00052175 3.3685e-24 6.21263e-46)
(-0.000351805 -0.645031 -1.79848e-26 0.000488642 -1.16819e-23 -1.26087e-47)
(-0.000319825 -0.650488 3.46283e-28 0.000450399 1.16848e-23 0)
(-0.000280671 -0.655494 3.69883e-25 0.000407815 -1.38318e-24 5.11003e-49)
(-0.000236172 -0.659802 2.60865e-24 0.000349398 1.33902e-24 -1.61719e-47)
(-0.000183618 -0.663526 -1.49235e-24 0.000297822 3.03002e-22 1.7237e-45)
(-0.000132221 -0.666325 3.26986e-25 0.000220365 -8.6182e-24 -1.42124e-49)
(-6.18469e-05 -0.668559 1.54047e-23 0.000166205 2.05764e-22 -9.36048e-45)
(-5.07929e-05 -0.669382 -9.60213e-26 9.71918e-05 1.62292e-26 -8.39449e-49)
(-1.8698e-05 -0.67117 -3.05347e-23 0.000135449 3.56527e-25 3.21571e-47)
(9.25171e-05 -0.230074 -1.26985e-21 -0.000162293 -1.40415e-25 1.75548e-46)
(0.000129933 -0.229912 -3.46844e-24 -0.000131668 1.50554e-24 0)
(0.000201729 -0.229801 -2.45747e-21 -0.00023575 6.90809e-23 -8.70829e-45)
(0.000340771 -0.228772 -5.0472e-23 -0.000323232 4.35795e-22 -1.42345e-44)
(0.000417922 -0.227542 4.84115e-21 -0.000399416 -3.16519e-22 1.31e-43)
(0.000531821 -0.225702 5.87764e-23 -0.000486502 1.63172e-23 -1.18514e-43)
(0.000607633 -0.223541 3.32771e-23 -0.000548614 2.35638e-25 -7.8828e-46)
(0.000685883 -0.22101 -3.6989e-23 -0.000610169 2.27968e-25 0)
(0.000751664 -0.218169 -4.98662e-21 -0.000661263 -2.06708e-21 -3.33025e-41)
(0.000805933 -0.215063 2.93615e-22 -0.00070253 8.89112e-23 5.28882e-43)
(0.000850088 -0.211734 -3.72833e-24 -0.000734662 3.01189e-21 0)
(0.000883623 -0.208228 -5.21749e-23 -0.000758159 3.48577e-21 1.51692e-45)
(0.00090729 -0.204586 7.53638e-25 -0.000773049 -1.89226e-23 0)
(0.000920705 -0.200849 5.21692e-23 -0.000778943 4.33541e-21 0)
(0.000924995 -0.197052 3.85588e-21 -0.000778227 -5.57242e-21 5.48269e-41)
(0.000921217 -0.193233 3.6695e-22 -0.000769741 3.09629e-22 -1.84027e-42)
(0.000910962 -0.189424 -4.13057e-21 -0.000757557 -3.10288e-21 -5.09924e-41)
(0.00089468 -0.185652 -7.94061e-22 -0.00073959 -6.41945e-22 2.66108e-44)
(0.00087267 -0.181948 9.15883e-22 -0.000718257 5.52577e-23 -5.63965e-44)
(0.000847174 -0.178323 1.46581e-23 -0.000693353 -4.90154e-21 5.86888e-46)
(0.000817146 -0.174801 4.06067e-22 -0.000665635 5.06443e-21 -1.96489e-44)
(0.000785286 -0.171394 -4.03113e-22 -0.000636253 -9.3708e-25 3.65958e-44)
(0.00075067 -0.168115 8.91481e-24 -0.000605171 -1.22645e-24 0)
(0.000714888 -0.164969 -4.74771e-30 -0.00057298 1.18249e-24 0)
(0.000677718 -0.161965 -1.68402e-24 -0.000540134 2.83304e-21 0)
(0.000640129 -0.159109 3.09215e-23 -0.000507188 -4.17746e-23 2.68992e-45)
(0.00060293 -0.156404 3.1842e-21 -0.000474729 1.96661e-21 -3.34724e-41)
(0.000565286 -0.153851 3.72323e-21 -0.00044231 -1.56684e-21 -5.99941e-42)
(0.000528559 -0.15145 -1.27818e-22 -0.000410754 2.86244e-21 0)
(0.000492074 -0.149195 -1.53352e-21 -0.000379671 6.21628e-22 9.99545e-43)
(0.00045643 -0.147085 -1.75881e-21 -0.000349475 7.68638e-22 -1.52531e-42)
(0.000421623 -0.145116 1.68088e-21 -0.000320147 -7.76374e-22 2.50755e-43)
(0.000387824 -0.143286 -4.53094e-23 -0.000291864 -2.97776e-21 0)
(0.000355026 -0.141589 -1.26933e-22 -0.000264545 3.33139e-22 6.31395e-43)
(0.000323445 -0.140022 1.93964e-21 -0.000238333 -7.26508e-22 -2.15884e-42)
(0.000292702 -0.138582 -3.26589e-22 -0.000213114 -2.09606e-22 5.41856e-43)
(0.000263273 -0.137265 1.3273e-22 -0.000188972 1.11738e-22 3.16397e-44)
(0.000234535 -0.136066 7.94448e-22 -0.000165583 -1.76159e-22 -4.88323e-43)
(0.000207074 -0.134982 -1.9677e-23 -0.000143169 4.13697e-26 0)
(0.000180048 -0.134011 -2.28085e-24 -0.000121572 6.41082e-22 0)
(0.000154027 -0.133149 -8.24918e-23 -0.000100732 7.18637e-23 -7.05865e-47)
(0.000128706 -0.132393 7.9272e-23 -8.03911e-05 -7.15254e-23 7.05429e-47)
(0.000103405 -0.131736 -3.42535e-22 -6.03932e-05 1.30532e-22 2.22411e-44)
(7.92187e-05 -0.131178 -3.44295e-23 -4.10679e-05 -3.13398e-24 -3.07823e-44)
(5.50797e-05 -0.130716 1.08672e-24 -2.20226e-05 -2.90668e-22 0)
(3.15081e-05 -0.13035 -2.50679e-28 -3.51946e-06 1.76203e-23 0)
(8.22995e-06 -0.13008 2.19375e-24 1.47772e-05 -1.74818e-23 0)
(-1.43759e-05 -0.129902 1.03581e-22 3.25209e-05 -1.1948e-23 -8.55014e-45)
(-3.67592e-05 -0.129817 -2.19354e-24 4.99971e-05 5.74094e-23 0)
(-5.89771e-05 -0.129823 2.20249e-25 6.72643e-05 3.95796e-24 0)
(-8.11432e-05 -0.129921 1.02974e-23 8.44704e-05 -6.33432e-23 -2.71246e-49)
(-0.000103232 -0.13011 -1.07389e-23 0.000101696 -5.98903e-25 2.71274e-49)
(-0.000125462 -0.13039 3.45335e-24 0.000118891 1.42654e-23 0)
(-0.000147651 -0.130761 1.84933e-22 0.000136082 -8.89666e-23 2.29693e-44)
(-0.000170015 -0.131227 -3.97075e-22 0.000153404 1.11913e-22 6.38765e-46)
(-0.000192504 -0.131786 -3.05639e-23 0.000170785 4.39101e-22 1.77061e-44)
(-0.00021524 -0.132441 3.88736e-22 0.000188426 -6.05837e-23 -5.61808e-44)
(-0.000238169 -0.133192 2.8045e-23 0.000206195 -4.68522e-23 -2.27675e-44)
(-0.000261735 -0.134042 -6.98579e-22 0.000224349 2.01099e-22 1.82603e-43)
(-0.000285134 -0.134988 -7.60618e-23 0.000242751 -5.78304e-24 -7.36917e-44)
(-0.000309396 -0.136033 1.26581e-22 0.000261601 6.75093e-22 -1.42923e-44)
(-0.000333284 -0.137179 -1.49036e-23 0.000280388 -5.86675e-22 2.44365e-44)
(-0.000357466 -0.138428 1.89693e-24 0.000299337 -1.07382e-22 0)
(-0.000381865 -0.139785 1.78509e-22 0.000318337 -4.66807e-22 7.22668e-47)
(-0.000406087 -0.141251 -1.82739e-22 0.000337491 -5.0827e-22 -7.23558e-47)
(-0.00043099 -0.142826 -1.73571e-23 0.000357051 -5.27006e-22 2.72746e-46)
(-0.000455663 -0.144511 1.97837e-23 0.000376692 1.12597e-22 2.33008e-46)
(-0.000480564 -0.146307 -1.93779e-25 0.000396412 -5.06878e-23 0)
(-0.000505218 -0.148216 8.68876e-24 0.000416073 6.88665e-22 0)
(-0.000529986 -0.150237 1.72985e-21 0.000435897 -6.00993e-23 -5.69831e-43)
(-0.000554452 -0.152371 -1.00688e-23 0.000455527 -1.31444e-22 0)
(-0.000578648 -0.154617 -3.9188e-22 0.000475104 5.74017e-23 1.94756e-46)
(-0.000602431 -0.156975 3.95655e-22 0.000494278 -3.66265e-23 -1.95215e-46)
(-0.000625725 -0.159444 -1.42291e-24 0.000513126 6.99543e-23 0)
(-0.000648575 -0.162025 -2.68944e-24 0.000531622 -3.01377e-23 7.51482e-49)
(-0.000670398 -0.164715 6.4204e-27 0.000549441 3.20289e-26 0)
(-0.000691415 -0.167511 2.76665e-24 0.000566296 3.80147e-23 -2.42763e-49)
(-0.00071096 -0.170412 -3.26136e-24 0.000582418 8.06448e-23 0)
(-0.000729358 -0.173411 3.92332e-21 0.000596913 -1.84937e-22 2.83744e-42)
(-0.000746379 -0.176509 3.21977e-24 0.000610992 -3.81667e-22 0)
(-0.000760371 -0.179694 6.19659e-24 0.000621539 7.40429e-23 -9.60093e-49)
(-0.000772358 -0.182956 -4.12372e-21 0.000631155 -2.17643e-22 -5.32268e-43)
(-0.00078116 -0.186292 4.18383e-21 0.00063717 1.72021e-22 3.94902e-43)
(-0.000786006 -0.189682 -4.23896e-21 0.000640197 -1.10151e-21 -1.00604e-41)
(-0.00078675 -0.193114 -1.26463e-23 0.000639387 -1.07325e-21 0)
(-0.000781795 -0.196566 2.53741e-25 0.000633975 1.16573e-21 0)
(-0.000770885 -0.200014 1.66722e-23 0.000623067 1.43506e-25 0)
(-0.000753816 -0.203436 -4.51596e-21 0.000607276 -2.00242e-22 1.51296e-42)
(-0.000728882 -0.206802 -4.62045e-21 0.000584425 -3.68009e-22 -2.99878e-43)
(-0.000696419 -0.210079 3.64565e-23 0.000555649 1.24454e-21 -5.64059e-46)
(-0.000652429 -0.21323 1.31881e-22 0.000516746 1.32884e-21 -2.25819e-47)
(-0.000601688 -0.216201 -1.30924e-22 0.000471711 -8.82938e-24 2.26884e-47)
(-0.000540287 -0.218979 1.65548e-23 0.000419767 1.21459e-21 -1.43414e-47)
(-0.000471369 -0.221497 -6.64225e-24 0.000355971 3.63272e-25 2.87883e-47)
(-0.000390129 -0.223756 -5.10086e-21 0.000290422 -2.51214e-22 5.02058e-43)
(-0.00031133 -0.225683 1.32858e-22 0.000211333 1.43776e-23 -1.04637e-43)
(-0.000208368 -0.22732 -5.05331e-21 0.000135245 -1.64087e-22 3.74806e-43)
(-0.000182155 -0.228535 -9.36163e-24 8.17946e-05 -2.38335e-24 0)
(-0.000104482 -0.229692 2.92227e-23 7.40855e-05 -2.27899e-24 -3.07793e-47)
(8.07553e-05 -0.19535 4.21628e-21 -0.00012161 7.98177e-25 -3.42977e-46)
(0.000161883 -0.194978 8.89321e-23 -0.000123202 8.56142e-26 -1.33028e-44)
(0.000260641 -0.194431 2.52082e-21 -0.00027678 -4.02904e-22 -1.4648e-43)
(0.000448402 -0.193248 1.19717e-20 -0.000428971 -3.55158e-22 -1.10217e-42)
(0.000558255 -0.191769 -5.42204e-21 -0.000554914 -3.41449e-22 -1.62903e-43)
(0.000706544 -0.189868 3.44786e-22 -0.000696284 2.66628e-21 2.21828e-43)
(0.000813796 -0.187693 -1.01467e-24 -0.000804857 -3.67924e-24 0)
(0.000919852 -0.185245 -9.83142e-23 -0.000910897 4.89034e-25 0)
(0.00101056 -0.182575 -1.82142e-20 -0.00100169 7.24056e-21 2.43179e-40)
(0.00108601 -0.179721 8.66531e-22 -0.00107779 1.21158e-22 2.701e-42)
(0.00114816 -0.17672 2.01912e-20 -0.00114036 2.62547e-21 -2.33717e-40)
(0.00119583 -0.173611 2.06717e-20 -0.0011889 -2.7595e-21 -2.99631e-41)
(0.00123045 -0.170428 5.59066e-23 -0.00122439 6.70322e-21 2.42206e-42)
(0.00125152 -0.167202 2.08154e-20 -0.00124603 -3.14015e-21 -5.0871e-41)
(0.00126004 -0.163961 -2.47782e-20 -0.00125611 2.19429e-21 -1.56671e-40)
(0.00125803 -0.160733 1.23702e-21 -0.00125413 -7.87873e-21 1.50845e-41)
(0.00124635 -0.157543 -1.28914e-20 -0.00124418 5.08251e-21 1.17525e-40)
(0.0012267 -0.154409 -1.94609e-21 -0.00122475 -8.61443e-21 -1.98356e-41)
(0.00119904 -0.151352 -2.25577e-22 -0.00119849 1.83768e-22 0)
(0.00116643 -0.148381 -1.63345e-20 -0.0011662 4.54232e-21 4.70521e-42)
(0.00112752 -0.145511 1.65115e-20 -0.00112833 -5.39159e-21 3.07814e-41)
(0.0010857 -0.14275 -2.63378e-22 -0.00108694 7.42251e-22 0)
(0.00104004 -0.140107 2.64716e-25 -0.00104202 -5.89323e-22 0)
(0.000992615 -0.137585 1.50668e-22 -0.000994925 5.81532e-22 0)
(0.00094302 -0.135187 8.00579e-21 -0.000945873 -1.51037e-21 -2.39658e-41)
(0.000892593 -0.132916 -5.42782e-23 -0.000895799 -5.68386e-22 0)
(0.000842242 -0.130774 5.41718e-21 -0.000845789 -3.85429e-21 5.57878e-41)
(0.00079133 -0.128759 -3.88185e-21 -0.000795145 2.91079e-21 1.24109e-42)
(0.000741403 -0.126871 7.6581e-21 -0.000745414 -2.11531e-21 -1.01389e-41)
(0.00069195 -0.125107 1.38661e-21 -0.000696028 -3.74243e-21 1.49089e-43)
(0.000643437 -0.123461 1.79989e-21 -0.000647583 5.98388e-21 3.15726e-43)
(0.000595933 -0.121933 -2.07961e-21 -0.000600133 -1.12905e-21 -2.17253e-43)
(0.000549752 -0.120517 -7.50274e-21 -0.000553962 2.03943e-21 -1.76396e-41)
(0.00050489 -0.119212 9.21978e-22 -0.000509019 1.26064e-22 4.31597e-42)
(0.00046154 -0.118012 -1.84201e-21 -0.00046555 1.30343e-21 1.29455e-43)
(0.000419176 -0.116916 -3.43546e-22 -0.00042319 2.69267e-22 -1.16003e-43)
(0.000378579 -0.115921 1.93936e-22 -0.000382437 -4.75851e-23 3.73585e-45)
(0.000338954 -0.115021 -4.9921e-22 -0.000342708 1.55009e-21 5.17345e-43)
(0.000300835 -0.114214 4.85788e-23 -0.00030435 2.31403e-21 0)
(0.000263335 -0.113498 1.6989e-21 -0.000266811 -1.53973e-21 5.66918e-42)
(0.000227175 -0.112872 1.52056e-22 -0.000230477 -1.60363e-23 -2.06637e-46)
(0.000191938 -0.112331 -1.87335e-22 -0.00019501 1.60812e-23 2.06414e-46)
(0.000157119 -0.111872 3.41043e-22 -0.000159936 1.55027e-22 7.55558e-45)
(0.000123535 -0.111493 -2.44147e-23 -0.000126007 1.96377e-23 0)
(8.9999e-05 -0.111193 -8.31074e-22 -9.22492e-05 2.12271e-22 -1.28411e-43)
(5.72822e-05 -0.110971 6.23384e-23 -5.92376e-05 1.83222e-24 -7.75027e-48)
(2.49138e-05 -0.110827 -4.96017e-23 -2.66013e-05 -4.65383e-22 7.74697e-48)
(-6.78646e-06 -0.110759 -5.57836e-23 5.28375e-06 -4.23649e-23 3.5391e-45)
(-3.80611e-05 -0.110765 1.85453e-22 3.68552e-05 -4.89396e-23 1.49013e-45)
(-6.91246e-05 -0.110847 5.68869e-24 6.81941e-05 -1.25317e-24 1.23317e-45)
(-0.000100252 -0.111003 -2.14042e-22 9.95256e-05 5.39621e-23 -2.01264e-46)
(-0.000131193 -0.111235 4.32487e-24 0.000130844 -3.35247e-23 0)
(-0.000162306 -0.111541 4.22066e-23 0.000162279 2.62139e-23 1.43149e-44)
(-0.000193572 -0.111923 -3.05337e-22 0.000193802 -6.87579e-23 -2.16836e-44)
(-0.000225035 -0.112382 4.64341e-22 0.000225587 1.74892e-22 -1.78114e-44)
(-0.000256695 -0.112919 1.77537e-21 0.000257553 -3.76472e-22 -1.27267e-43)
(-0.000288796 -0.113534 -2.71889e-22 0.000289955 -6.98995e-23 2.64826e-43)
(-0.000321126 -0.11423 -1.77326e-22 0.000322617 -1.76994e-23 -8.58047e-44)
(-0.00035405 -0.115006 8.91315e-22 0.000355884 7.25583e-22 -2.49667e-43)
(-0.000386941 -0.115862 2.46092e-23 0.000389239 6.06994e-22 -2.91943e-43)
(-0.000420863 -0.116802 3.4571e-21 0.000423431 -4.45425e-22 -1.50856e-42)
(-0.000454459 -0.117824 -3.55875e-21 0.000457462 3.95135e-22 -1.30815e-42)
(-0.000488505 -0.118933 -5.98216e-22 0.000491893 -9.81359e-22 -1.29463e-42)
(-0.000523152 -0.12013 -3.19853e-21 0.000526676 4.34946e-22 1.35582e-42)
(-0.000557502 -0.121418 -3.62144e-21 0.000561392 4.09676e-22 -8.68192e-43)
(-0.000592414 -0.122795 -4.04207e-21 0.000596599 2.52646e-22 -3.0928e-42)
(-0.00062724 -0.124263 8.6688e-22 0.0006318 1.00328e-22 4.93585e-43)
(-0.000662391 -0.125825 -3.92155e-22 0.000667195 -8.1013e-23 7.65097e-44)
(-0.000697047 -0.127479 7.5789e-21 0.000702229 7.85734e-22 -3.27896e-41)
(-0.000731805 -0.129227 -7.1103e-22 0.000737303 -1.26127e-21 1.09305e-42)
(-0.000766232 -0.131068 -1.76244e-21 0.000771944 -6.19804e-23 -7.81501e-43)
(-0.000800198 -0.133003 8.9787e-22 0.000806261 8.27656e-23 1.95675e-43)
(-0.000833508 -0.135032 -9.15526e-22 0.000839823 -9.71204e-23 8.24238e-44)
(-0.000866139 -0.137153 1.85062e-21 0.000872695 7.28113e-23 -1.9341e-43)
(-0.000898101 -0.139366 -9.38157e-22 0.000904781 -3.51947e-23 1.11137e-43)
(-0.000928514 -0.14167 3.61258e-24 0.000935587 3.37375e-23 0)
(-0.000957785 -0.144062 8.55113e-21 0.000964803 -1.05759e-22 1.40801e-42)
(-0.000985089 -0.146539 -1.74026e-20 0.00099252 -8.9455e-23 -1.81677e-42)
(-0.00101088 -0.1491 1.41205e-20 0.00101789 6.01551e-22 -2.12803e-41)
(-0.00103412 -0.151737 1.80363e-20 0.00104175 2.69446e-22 2.51395e-42)
(-0.0010538 -0.154447 -2.09135e-21 0.00106078 8.96612e-22 -9.17823e-43)
(-0.00107012 -0.157219 5.8797e-21 0.00107756 9.19715e-22 1.41037e-42)
(-0.00108217 -0.160046 -3.87781e-21 0.00108899 -1.10987e-21 -3.61986e-43)
(-0.00108861 -0.162914 2.32622e-20 0.00109543 4.14725e-22 2.55342e-41)
(-0.00108931 -0.16581 2.10391e-20 0.00109556 -9.6164e-22 8.95157e-41)
(-0.00108207 -0.168715 -2.12557e-20 0.0010881 -8.34405e-22 1.03204e-41)
(-0.00106686 -0.17161 -6.90245e-23 0.00107207 2.01649e-21 0)
(-0.00104289 -0.174472 3.00211e-21 0.00104782 1.77016e-21 -3.16886e-42)
(-0.00100851 -0.177277 5.57635e-21 0.00101246 -3.06692e-22 2.05496e-42)
(-0.000963334 -0.179995 -2.09883e-20 0.000966876 -1.15235e-21 -3.93863e-42)
(-0.000903748 -0.182597 -2.27475e-20 0.000906502 -9.36065e-22 1.67491e-41)
(-0.000834222 -0.185042 1.53471e-22 0.000835697 -1.18178e-23 -4.23789e-43)
(-0.000750891 -0.187303 -2.29113e-20 0.000753801 -3.04885e-21 -8.8972e-41)
(-0.000658763 -0.189345 -7.13578e-23 0.000656982 1.09336e-23 0)
(-0.000549603 -0.191132 5.0558e-21 0.000554072 -3.16637e-22 -2.00148e-43)
(-0.000445599 -0.192637 -3.30847e-22 0.000438743 -1.76154e-24 -1.8084e-43)
(-0.000312056 -0.193831 4.729e-21 0.000324 -1.95431e-22 -3.81195e-43)
(-0.000263693 -0.194678 9.3331e-23 0.000241975 -1.27858e-25 3.17351e-44)
(-0.000138682 -0.195229 9.38349e-23 0.00017754 1.1474e-24 1.25677e-46)
(8.56459e-05 -0.167216 -2.87307e-21 -0.000123839 -6.70231e-25 1.68002e-46)
(0.00021758 -0.166686 -2.36963e-23 -0.000182296 8.33261e-25 0)
(0.000338133 -0.165845 -2.66983e-20 -0.000355625 -1.04317e-22 -2.24641e-41)
(0.000566661 -0.16454 -1.16545e-20 -0.000552079 -4.38838e-22 8.81106e-43)
(0.000705121 -0.162904 1.57025e-22 -0.000706254 -1.4914e-21 2.18168e-42)
(0.000878685 -0.160979 5.1846e-20 -0.000874773 -2.15974e-21 -3.41403e-41)
(0.00101254 -0.158813 -1.33923e-22 -0.00101107 -1.6195e-25 0)
(0.00114007 -0.156441 3.43605e-22 -0.00113932 -2.22747e-24 0)
(0.00124985 -0.153919 6.967e-20 -0.00124976 -1.49737e-21 -4.61316e-40)
(0.00134145 -0.151273 1.1787e-21 -0.00134227 -4.52999e-21 -7.34183e-42)
(0.00141689 -0.148536 2.39991e-20 -0.0014184 -7.26988e-21 4.50714e-40)
(0.00147458 -0.145747 -1.92853e-20 -0.00147698 -3.48961e-21 3.24779e-41)
(0.00151655 -0.142928 4.61519e-20 -0.00151981 -1.07237e-20 4.13466e-40)
(0.00154232 -0.140107 -1.88164e-20 -0.001546 -4.27011e-21 3.62746e-41)
(0.00155278 -0.137303 1.79975e-20 -0.00155775 -7.75036e-22 8.62719e-41)
(0.00155079 -0.134534 -4.18751e-20 -0.00155555 5.79589e-21 -9.89486e-41)
(0.00153654 -0.131824 1.73227e-20 -0.00154251 9.0667e-21 -4.72313e-41)
(0.00151298 -0.129183 -4.25546e-20 -0.00151867 7.91026e-21 -1.23555e-40)
(0.00147941 -0.126625 3.06788e-21 -0.00148598 7.39291e-21 4.66735e-41)
(0.00143985 -0.124157 1.81238e-20 -0.0014462 4.90094e-21 -8.44596e-43)
(0.00139267 -0.121786 -2.05365e-20 -0.0013995 2.66526e-21 -6.04037e-41)
(0.00134159 -0.119519 2.43976e-21 -0.00134836 3.81029e-23 2.83016e-41)
(0.00128596 -0.117361 -2.07274e-21 -0.00129293 -7.98593e-21 -1.9775e-44)
(0.00122803 -0.115312 2.00376e-21 -0.00123489 -7.96902e-21 1.96465e-44)
(0.00116747 -0.113373 -5.41169e-21 -0.00117438 -2.20838e-21 3.52659e-41)
(0.00110585 -0.111546 -2.04827e-21 -0.00111261 -4.11364e-23 -1.31919e-41)
(0.00104397 -0.10983 -7.7419e-21 -0.00105063 -2.35097e-21 -1.38589e-41)
(0.000981604 -0.108224 1.65044e-20 -0.000988029 6.08627e-21 -4.10247e-40)
(0.000920129 -0.106725 -7.41567e-21 -0.00092643 -2.26898e-21 -1.65638e-41)
(0.000859256 -0.105329 -1.46248e-20 -0.000865374 2.51077e-21 -2.29303e-41)
(0.00079955 -0.104035 1.69569e-20 -0.000805427 -4.65027e-21 -4.74443e-41)
(0.000741101 -0.102838 -1.07137e-21 -0.000746707 1.0219e-21 1.31888e-41)
(0.000684076 -0.101736 6.53953e-21 -0.000689508 3.12589e-21 1.2767e-41)
(0.000628653 -0.100725 -1.5355e-24 -0.000633807 -5.58021e-22 0)
(0.000574999 -0.0998016 7.55887e-21 -0.00057982 -9.73539e-22 -7.79442e-42)
(0.000522513 -0.0989642 2.94926e-22 -0.000527142 -3.67763e-21 -1.95134e-43)
(0.000472135 -0.0982092 1.07399e-22 -0.000476402 -7.68389e-23 -2.49531e-42)
(0.000422918 -0.0975334 6.65121e-21 -0.000426971 -1.59784e-21 1.01881e-41)
(0.000375395 -0.0969345 7.52386e-21 -0.000379103 -1.52549e-21 -1.91288e-41)
(0.000328759 -0.0964106 -5.31845e-21 -0.000332183 8.12184e-23 -1.44557e-41)
(0.000283627 -0.0959601 -1.07036e-22 -0.000286767 3.60022e-23 -1.58568e-46)
(0.000239637 -0.0955795 2.1335e-22 -0.000242468 -3.31874e-23 1.58345e-46)
(0.000196267 -0.0952673 -4.00926e-24 -0.000198817 -2.76275e-23 0)
(0.000154193 -0.0950214 1.5e-23 -0.000156472 -3.14781e-26 0)
(0.000112356 -0.0948406 7.53669e-22 -0.000114334 2.80936e-22 1.16319e-43)
(7.12602e-05 -0.094725 -4.36387e-23 -7.29933e-05 -1.56455e-23 0)
(3.08533e-05 -0.0946731 -1.77868e-21 -3.22613e-05 3.68439e-22 -3.89688e-43)
(-8.73096e-06 -0.0946827 2.52379e-23 7.66158e-06 2.27173e-23 0)
(-4.80666e-05 -0.0947544 -1.87919e-22 4.72913e-05 -2.48197e-22 1.13032e-45)
(-8.72065e-05 -0.0948889 1.52307e-24 8.66871e-05 2.0517e-24 4.62495e-47)
(-0.000126305 -0.0950851 2.37804e-22 0.000126062 5.18789e-23 -5.69017e-45)
(-0.000165285 -0.0953436 -1.58025e-22 0.000165399 -1.33333e-23 2.77164e-46)
(-0.00020453 -0.0956649 1.06134e-22 0.000204938 -3.02658e-23 4.43506e-45)
(-0.000243905 -0.09605 1.21821e-24 0.000244634 1.28132e-22 0)
(-0.000283569 -0.0964984 1.83065e-22 0.000284649 4.97152e-22 2.70943e-43)
(-0.000323574 -0.0970122 -1.95281e-21 0.000324934 -4.3101e-22 -5.41387e-43)
(-0.000364059 -0.0975911 2.37972e-22 0.000365716 1.41315e-22 2.726e-43)
(-0.000404831 -0.0982373 3.02906e-23 0.000406857 4.05822e-23 0)
(-0.000446229 -0.0989507 3.30101e-21 0.000448619 -7.44494e-22 2.17716e-42)
(-0.000487766 -0.0997327 3.6574e-21 0.000490442 -4.45302e-22 -2.41037e-42)
(-0.000530238 -0.100583 -2.74093e-21 0.000533215 -5.66863e-22 1.60648e-42)
(-0.000572592 -0.101504 2.72381e-21 0.000575968 6.42567e-22 9.47915e-43)
(-0.000615501 -0.102497 -7.64113e-21 0.000619263 7.4672e-22 -5.51714e-42)
(-0.000659069 -0.103565 3.78689e-21 0.000663087 3.70602e-22 1.27464e-43)
(-0.000702331 -0.104708 3.27753e-21 0.000706766 5.78397e-22 7.89447e-43)
(-0.000746124 -0.105926 2.38946e-21 0.000750888 5.69408e-22 3.3826e-42)
(-0.000789847 -0.107221 8.98371e-22 0.000795002 -1.4628e-21 -1.08922e-42)
(-0.00083386 -0.108594 -9.03953e-22 0.000839326 1.13965e-22 1.80255e-42)
(-0.000877331 -0.110046 1.13152e-20 0.000883147 -1.57538e-21 4.17379e-41)
(-0.000920652 -0.111577 -1.76242e-20 0.000926855 7.86922e-22 -1.55251e-41)
(-0.000963541 -0.113186 -9.1391e-22 0.000969992 1.32199e-22 5.23099e-46)
(-0.0010058 -0.114874 9.86297e-22 0.00101261 3.57025e-23 -5.25578e-46)
(-0.00104713 -0.116641 -2.02658e-21 0.00105425 3.3923e-23 1.50687e-45)
(-0.0010875 -0.118487 2.0412e-21 0.00109493 7.99135e-22 -1.51506e-45)
(-0.00112683 -0.12041 -2.09898e-21 0.00113449 -1.59828e-23 7.98588e-46)
(-0.00116426 -0.122409 2.10608e-21 0.00117235 -7.47306e-25 -8.03496e-46)
(-0.00120013 -0.124484 -2.86802e-20 0.00120823 6.26126e-23 -4.40364e-42)
(-0.00123335 -0.126629 3.50221e-20 0.00124194 -8.01501e-23 8.25387e-42)
(-0.00126461 -0.128844 -5.27706e-20 0.00127291 -4.67473e-23 3.63813e-41)
(-0.00129204 -0.131123 -1.66482e-20 0.0013012 3.95438e-22 -2.32455e-42)
(-0.00131562 -0.133461 -4.01797e-20 0.00132426 -8.05052e-22 7.76249e-43)
(-0.00133416 -0.13585 -4.11581e-20 0.00134349 -6.23161e-22 1.14021e-41)
(-0.00134757 -0.138282 4.18501e-20 0.00135648 9.44585e-22 3.64971e-42)
(-0.00135362 -0.140746 -1.80581e-20 0.00136283 1.11866e-21 -1.5168e-41)
(-0.00135234 -0.143222 2.50479e-20 0.00136127 2.4782e-21 -1.52474e-40)
(-0.00134117 -0.145709 1.90154e-20 0.00135015 3.75044e-22 -9.41762e-42)
(-0.00132006 -0.148176 -4.52521e-20 0.00132864 -1.66868e-21 1.3156e-41)
(-0.00128781 -0.150606 -4.6438e-20 0.00129645 -3.17586e-21 -1.37075e-40)
(-0.0012431 -0.152985 -1.55546e-21 0.00125101 2.23123e-21 -3.32834e-42)
(-0.00118448 -0.155278 2.3198e-20 0.00119234 -1.21127e-21 1.01331e-41)
(-0.00110967 -0.157465 1.94919e-20 0.00111683 -3.27447e-21 -1.89175e-41)
(-0.00102182 -0.159513 -1.02184e-22 0.00102768 1.93312e-21 0)
(-0.000917567 -0.161391 7.22501e-20 0.000924428 4.42642e-22 2.0642e-40)
(-0.000803782 -0.163066 -1.69795e-22 0.000805835 7.48571e-25 2.77308e-43)
(-0.000668242 -0.164504 3.79175e-22 0.000676244 1.78e-21 1.45368e-45)
(-0.000540965 -0.165698 3.85905e-22 0.000538142 -1.54835e-24 -2.87668e-47)
(-0.000379947 -0.166583 -3.86613e-22 0.000394247 1.77837e-22 2.89588e-47)
(-0.000305594 -0.167159 -4.58375e-25 0.000287736 2.2731e-24 -4.64159e-50)
(-0.000136238 -0.167297 -3.7305e-23 0.000174428 1.67105e-24 -2.11788e-46)
(0.000108747 -0.144479 -3.25471e-25 -0.000146482 5.50349e-26 1.60864e-48)
(0.00029166 -0.143819 2.14758e-22 -0.000260316 1.75599e-25 -1.74936e-46)
(0.000430783 -0.142768 -3.54031e-21 -0.000449428 8.36995e-22 3.92518e-41)
(0.000691157 -0.141372 -9.67863e-23 -0.000678929 1.50853e-21 0)
(0.000851833 -0.139645 -5.6487e-20 -0.000854832 -1.73973e-21 -3.17779e-40)
(0.00104484 -0.137731 -4.89793e-20 -0.00104181 1.39532e-21 3.07485e-41)
(0.00120193 -0.135603 1.22137e-22 -0.00120011 1.70502e-25 0)
(0.00134588 -0.133335 -1.99801e-22 -0.00134439 -5.88017e-21 0)
(0.00146976 -0.130948 -4.65753e-20 -0.00146862 -1.33924e-20 2.44872e-40)
(0.00157333 -0.128491 -5.29135e-20 -0.00157193 3.4058e-21 -7.75124e-41)
(0.00165769 -0.125989 -4.26308e-20 -0.00165656 5.76533e-21 -1.71157e-40)
(0.00172166 -0.123468 -4.05474e-22 -0.001721 1.22704e-20 0)