/*--------------------------------*- C++ -*----------------------------------*\
| =========                 |                                                 |
| \\      /  F ield         | OpenFOAM: The Open Source CFD Toolbox           |
|  \\    /   O peration     | Version:  2306                                  |
|   \\  /    A nd           | Website:  www.openfoam.com                      |
|    \\/     M anipulation  |                                                 |
\*---------------------------------------------------------------------------*/
// * * * * * * * * * * * * * * * * * * * * * * * * * * * * * * * * * * * * * //
FoamFile
{
    version         2;
    format          ascii;
    class           volVectorField;
    location        "0";
    object          Udns;
}

dimensions      [ 0 1 -1 0 0 0 0 ];

internalField   nonuniform List<vector> 
14751
(
(0.00157843 -1.38599e-07 2.3253e-06)
(0.00158032 -8.80127e-08 2.36842e-06)
(0.00157979 1.19319e-07 2.38129e-06)
(0.00157673 8.78412e-08 2.37894e-06)
(0.00157113 3.03119e-07 2.38771e-06)
(0.00156318 3.42989e-07 2.4073e-06)
(0.00155299 4.20474e-07 2.4383e-06)
(0.00154061 6.05924e-07 2.42542e-06)
(0.00152621 5.00361e-07 2.37079e-06)
(0.00151003 7.81509e-07 2.32515e-06)
(0.00149234 6.91133e-07 2.32796e-06)
(0.00147333 8.03946e-07 2.35143e-06)
(0.00145327 8.77298e-07 2.39093e-06)
(0.00143249 7.68533e-07 2.38266e-06)
(0.00141122 1.02915e-06 2.32725e-06)
(0.00138967 7.87427e-07 2.26735e-06)
(0.00136795 9.48582e-07 2.20584e-06)
(0.0013462 8.99356e-07 2.15652e-06)
(0.00132461 8.36041e-07 2.13108e-06)
(0.00130333 9.82738e-07 2.14184e-06)
(0.00128247 7.1168e-07 2.16245e-06)
(0.00126223 9.14358e-07 2.12174e-06)
(0.00124269 7.55931e-07 2.11744e-06)
(0.00122386 7.55188e-07 2.08593e-06)
(0.00120576 7.88588e-07 1.99969e-06)
(0.00118847 6.06807e-07 1.95364e-06)
(0.00117202 7.75681e-07 1.93168e-06)
(0.0011564 5.70888e-07 2.00462e-06)
(0.0011414 6.36822e-07 2.11127e-06)
(0.00112701 5.97173e-07 2.15725e-06)
(0.00111334 5.11599e-07 2.13875e-06)
(0.00110034 5.9374e-07 2.10355e-06)
(0.00108806 4.30708e-07 2.07331e-06)
(0.00107644 5.05286e-07 2.0223e-06)
(0.00106531 4.36987e-07 1.87354e-06)
(0.00105478 4.17592e-07 1.75706e-06)
(0.00104469 4.36443e-07 1.71347e-06)
(0.00103482 3.76351e-07 1.68335e-06)
(0.00102557 3.9504e-07 1.74376e-06)
(0.00101692 3.47302e-07 1.72466e-06)
(0.00100882 3.28509e-07 1.7284e-06)
(0.00100125 3.07219e-07 1.86833e-06)
(0.000994039 3.06172e-07 2.06442e-06)
(0.000986992 2.78607e-07 2.23344e-06)
(0.000980374 2.85762e-07 2.39221e-06)
(0.000974394 2.32103e-07 2.49155e-06)
(0.000969051 2.12756e-07 2.41889e-06)
(0.000964272 2.17358e-07 2.28336e-06)
(0.000959726 1.47734e-07 2.20942e-06)
(0.00095589 2.15342e-07 2.19918e-06)
(0.000952696 8.66224e-08 2.16356e-06)
(0.000950201 1.26221e-07 2.18888e-06)
(0.000948493 6.72268e-08 2.24749e-06)
(0.000947542 1.17703e-08 2.20122e-06)
(0.000947451 5.14076e-08 2.1478e-06)
(0.000948526 -1.43234e-07 2.1358e-06)
(0.000950647 -3.70223e-08 2.10358e-06)
(0.000953864 -1.65888e-07 2.14528e-06)
(0.000958213 -1.95426e-07 2.19306e-06)
(0.0009636 -1.76748e-07 2.1964e-06)
(0.000969987 -3.56237e-07 2.20596e-06)
(0.000977424 -2.0865e-07 2.29282e-06)
(0.000985946 -4.24314e-07 2.28435e-06)
(0.000995525 -3.77924e-07 2.24336e-06)
(0.00100612 -4.30594e-07 2.18545e-06)
(0.0010178 -5.54062e-07 2.18562e-06)
(0.00103035 -4.09494e-07 2.17591e-06)
(0.00104361 -6.5246e-07 2.20772e-06)
(0.00105752 -5.13769e-07 2.21715e-06)
(0.00107237 -6.39709e-07 2.17712e-06)
(0.00108817 -6.84091e-07 2.16548e-06)
(0.00110466 -6.09855e-07 2.1851e-06)
(0.0011218 -8.26e-07 2.15692e-06)
(0.00113955 -6.38276e-07 2.13553e-06)
(0.00115781 -8.07718e-07 2.10904e-06)
(0.0011766 -7.72259e-07 2.07369e-06)
(0.00119588 -7.61764e-07 2.02123e-06)
(0.00121534 -8.71804e-07 2.01227e-06)
(0.00123496 -6.9888e-07 2.01672e-06)
(0.0012548 -8.92266e-07 2.05788e-06)
(0.00127485 -7.87138e-07 2.10212e-06)
(0.00129503 -8.3084e-07 2.12207e-06)
(0.00131527 -8.6571e-07 2.128e-06)
(0.00133559 -7.8102e-07 2.10339e-06)
(0.00135594 -9.19972e-07 2.08298e-06)
(0.00137629 -7.94582e-07 2.07551e-06)
(0.00139641 -8.48865e-07 2.0763e-06)
(0.00141619 -8.18198e-07 2.11227e-06)
(0.00143558 -7.83942e-07 2.11572e-06)
(0.00145446 -8.06083e-07 2.08496e-06)
(0.00147273 -7.22846e-07 2.05109e-06)
(0.00149018 -7.26507e-07 2.02217e-06)
(0.00150664 -6.65885e-07 2.01778e-06)
(0.00152187 -6.17942e-07 2.03167e-06)
(0.00153579 -5.56429e-07 2.03487e-06)
(0.00154824 -5.1529e-07 2.04974e-06)
(0.00155895 -3.96032e-07 2.07016e-06)
(0.00156764 -3.54842e-07 2.13286e-06)
(0.00157418 -2.38269e-07 2.23342e-06)
(0.00480632 -4.22033e-07 7.08053e-06)
(0.00481207 -2.68313e-07 7.21186e-06)
(0.00481044 3.64265e-07 7.25103e-06)
(0.00480901 2.69488e-07 7.25576e-06)
(0.00479978 9.24632e-07 7.29448e-06)
(0.00478332 1.05136e-06 7.36635e-06)
(0.00475989 1.2871e-06 7.47342e-06)
(0.00472966 1.8629e-06 7.44594e-06)
(0.00469307 1.53608e-06 7.29006e-06)
(0.00465087 2.40436e-06 7.16141e-06)
(0.00460382 2.13596e-06 7.18179e-06)
(0.00455252 2.47979e-06 7.26602e-06)
(0.0044978 2.71999e-06 7.4e-06)
(0.00444066 2.37778e-06 7.38613e-06)
(0.00438177 3.20039e-06 7.22591e-06)
(0.00432181 2.4538e-06 7.05125e-06)
(0.0042611 2.94995e-06 6.87106e-06)
(0.00419333 2.80636e-06 6.7174e-06)
(0.00413274 2.60437e-06 6.64895e-06)
(0.00407284 3.07503e-06 6.69332e-06)
(0.00401409 2.23143e-06 6.76841e-06)
(0.00395705 2.86336e-06 6.6516e-06)
(0.00389578 2.37353e-06 6.6382e-06)
(0.00384288 2.36757e-06 6.54965e-06)
(0.00379207 2.48285e-06 6.28885e-06)
(0.00374365 1.90868e-06 6.15392e-06)
(0.00369184 2.44142e-06 6.08485e-06)
(0.00364841 1.80293e-06 6.32471e-06)
(0.00360109 2.00743e-06 6.66122e-06)
(0.00356134 1.8881e-06 6.81693e-06)
(0.00351813 1.61564e-06 6.7584e-06)
(0.00348257 1.88006e-06 6.65771e-06)
(0.00344371 1.36397e-06 6.56197e-06)
(0.00340693 1.59849e-06 6.40048e-06)
(0.00337702 1.38585e-06 5.93892e-06)
(0.00334365 1.3232e-06 5.56985e-06)
(0.00331165 1.38399e-06 5.43165e-06)
(0.00328037 1.19283e-06 5.33624e-06)
(0.00325618 1.25411e-06 5.53644e-06)
(0.00322872 1.10276e-06 5.47576e-06)
(0.00320299 1.04296e-06 5.48772e-06)
(0.00317897 9.7542e-07 5.93194e-06)
(0.00315607 9.72095e-07 6.55454e-06)
(0.0031337 8.84578e-07 7.09117e-06)
(0.00311268 9.07153e-07 7.59535e-06)
(0.0030937 7.37082e-07 7.91067e-06)
(0.00307673 6.75281e-07 7.67992e-06)
(0.00306156 6.90111e-07 7.24965e-06)
(0.00304713 4.69055e-07 7.0149e-06)
(0.00303495 6.83711e-07 6.98241e-06)
(0.00302481 2.75026e-07 6.86929e-06)
(0.00301689 4.0075e-07 6.94969e-06)
(0.00301147 2.13043e-07 7.13579e-06)
(0.00300845 3.78403e-08 6.98889e-06)
(0.00300816 1.62768e-07 6.81931e-06)
(0.00301157 -4.54769e-07 6.78118e-06)
(0.00301831 -1.17546e-07 6.67888e-06)
(0.00302852 -5.26695e-07 6.81127e-06)
(0.00304232 -6.19873e-07 6.96293e-06)
(0.00305943 -5.61761e-07 6.97358e-06)
(0.00307486 -1.12863e-06 6.99288e-06)
(0.00309843 -6.60752e-07 7.26823e-06)
(0.00312544 -1.34633e-06 7.24144e-06)
(0.0031558 -1.19664e-06 7.1115e-06)
(0.00318939 -1.3663e-06 6.9279e-06)
(0.00322132 -1.75219e-06 6.9175e-06)
(0.00326105 -1.29742e-06 6.88676e-06)
(0.00330302 -2.06642e-06 6.98738e-06)
(0.00334176 -1.62205e-06 7.00623e-06)
(0.00338869 -2.02285e-06 6.87972e-06)
(0.00343314 -2.15616e-06 6.83208e-06)
(0.00348519 -1.92615e-06 6.89397e-06)
(0.00353364 -2.59977e-06 6.79437e-06)
(0.00358956 -2.0078e-06 6.72694e-06)
(0.00364129 -2.54291e-06 6.63301e-06)
(0.0036945 -2.42221e-06 6.5115e-06)
(0.00375501 -2.39515e-06 6.34679e-06)
(0.00381004 -2.73059e-06 6.30844e-06)
(0.00386538 -2.19049e-06 6.31235e-06)
(0.00392121 -2.79118e-06 6.43075e-06)
(0.00398385 -2.45703e-06 6.56903e-06)
(0.00404042 -2.59534e-06 6.62081e-06)
(0.00409702 -2.69372e-06 6.62876e-06)
(0.00415362 -2.43171e-06 6.5416e-06)
(0.00421014 -2.859e-06 6.46767e-06)
(0.00426644 -2.46096e-06 6.43409e-06)
(0.00432184 -2.62931e-06 6.42611e-06)
(0.00437596 -2.52649e-06 6.5268e-06)
(0.0044287 -2.41972e-06 6.52705e-06)
(0.00447971 -2.48187e-06 6.42175e-06)
(0.00452859 -2.22219e-06 6.30717e-06)
(0.00457483 -2.23088e-06 6.2081e-06)
(0.00461781 -2.04084e-06 6.18449e-06)
(0.00465691 -1.89099e-06 6.21691e-06)
(0.00469183 -1.7001e-06 6.21653e-06)
(0.00472211 -1.57149e-06 6.25169e-06)
(0.0047548 -1.2077e-06 6.31395e-06)
(0.00477347 -1.08086e-06 6.49449e-06)
(0.00479337 -7.25515e-07 6.80077e-06)
(0.00803011 -6.99588e-07 1.18408e-05)
(0.00803569 -2.58327e-07 1.2048e-05)
(0.00804306 8.26286e-07 1.21295e-05)
(0.00803694 9.41683e-07 1.21514e-05)
(0.00802503 1.98086e-06 1.22321e-05)
(0.00800754 2.53572e-06 1.2366e-05)
(0.00797104 3.12334e-06 1.25328e-05)
(0.00793095 3.9869e-06 1.25059e-05)
(0.00788047 3.90191e-06 1.22729e-05)
(0.00782086 5.14616e-06 1.2072e-05)
(0.00775334 5.16904e-06 1.21208e-05)
(0.00767704 5.85956e-06 1.22931e-05)
(0.00759321 6.32789e-06 1.25195e-05)
(0.00750942 5.5987e-06 1.25537e-05)
(0.00742073 6.93208e-06 1.23768e-05)
(0.00732666 6.20454e-06 1.21122e-05)
(0.00723499 6.99983e-06 1.18206e-05)
(0.00713952 6.47032e-06 1.15809e-05)
(0.00705218 6.18207e-06 1.14808e-05)
(0.00695666 6.87919e-06 1.1571e-05)
(0.00686519 5.95996e-06 1.16912e-05)
(0.00677654 6.47836e-06 1.15415e-05)
(0.00669121 6.07649e-06 1.15244e-05)
(0.00660743 5.98184e-06 1.13483e-05)
(0.00652578 6.10769e-06 1.09534e-05)
(0.00645054 4.96753e-06 1.07522e-05)
(0.00637424 5.52651e-06 1.0641e-05)
(0.00630164 4.48809e-06 1.09212e-05)
(0.006234 5.02758e-06 1.1399e-05)
(0.00616954 4.49043e-06 1.1632e-05)
(0.00610997 4.03045e-06 1.15479e-05)
(0.0060466 4.3233e-06 1.13962e-05)
(0.00599246 3.62039e-06 1.12474e-05)
(0.0059367 3.96341e-06 1.09638e-05)
(0.00588524 3.58016e-06 1.02988e-05)
(0.00583579 3.2551e-06 9.74243e-06)
(0.00578867 3.44873e-06 9.4669e-06)
(0.00574234 3.08112e-06 9.31797e-06)
(0.00569956 3.01579e-06 9.60902e-06)
(0.00566029 2.7803e-06 9.53708e-06)
(0.00561937 2.56809e-06 9.61416e-06)
(0.00558515 2.41794e-06 1.03719e-05)
(0.00554937 2.39078e-06 1.13934e-05)
(0.00551839 2.22898e-06 1.23384e-05)
(0.00548549 2.15072e-06 1.31676e-05)
(0.00546081 1.74534e-06 1.36046e-05)
(0.00543523 1.56806e-06 1.32753e-05)
(0.00541248 1.50352e-06 1.27338e-05)
(0.00539164 1.24872e-06 1.24271e-05)
(0.00537442 1.29438e-06 1.242e-05)
(0.00536068 8.00185e-07 1.22626e-05)
(0.00535097 8.69938e-07 1.22917e-05)
(0.00534523 2.34444e-07 1.24861e-05)
(0.00534355 1.37481e-07 1.22169e-05)
(0.00534187 -1.12843e-07 1.19326e-05)
(0.0053507 -8.86105e-07 1.18735e-05)
(0.00536064 -8.4166e-07 1.1778e-05)
(0.0053822 -1.6362e-06 1.20016e-05)
(0.00540276 -1.8978e-06 1.22164e-05)
(0.00543598 -1.98619e-06 1.21502e-05)
(0.00546853 -2.61384e-06 1.22162e-05)
(0.005507 -2.33172e-06 1.25737e-05)
(0.00554998 -3.20172e-06 1.25387e-05)
(0.00560058 -3.13628e-06 1.23658e-05)
(0.00565457 -3.90075e-06 1.20983e-05)
(0.00571197 -4.56329e-06 1.2045e-05)
(0.00577701 -3.84932e-06 1.19518e-05)
(0.0058414 -5.01323e-06 1.20335e-05)
(0.00591154 -4.65997e-06 1.2076e-05)
(0.00598192 -4.97233e-06 1.18922e-05)
(0.00605889 -5.2613e-06 1.17678e-05)
(0.00613692 -5.34519e-06 1.18262e-05)
(0.0062178 -6.02318e-06 1.17004e-05)
(0.00630277 -5.34117e-06 1.15925e-05)
(0.00638176 -6.01888e-06 1.14583e-05)
(0.00647216 -5.89309e-06 1.12608e-05)
(0.00655443 -5.85436e-06 1.09939e-05)
(0.00663953 -6.62879e-06 1.09288e-05)
(0.0067328 -5.81186e-06 1.09715e-05)
(0.00681283 -6.39149e-06 1.11458e-05)
(0.00690099 -5.86145e-06 1.13415e-05)
(0.00698713 -6.27794e-06 1.14111e-05)
(0.00706523 -6.35823e-06 1.13952e-05)
(0.00715258 -5.91617e-06 1.12523e-05)
(0.00723158 -6.31729e-06 1.11212e-05)
(0.00731738 -5.65507e-06 1.10437e-05)
(0.00739364 -5.9642e-06 1.10017e-05)
(0.00746752 -5.59231e-06 1.11013e-05)
(0.00753872 -5.42802e-06 1.10559e-05)
(0.00760572 -5.41309e-06 1.08807e-05)
(0.00767113 -4.8592e-06 1.07123e-05)
(0.00773121 -4.73248e-06 1.05547e-05)
(0.00779162 -4.28826e-06 1.05102e-05)
(0.00783872 -3.94192e-06 1.05318e-05)
(0.00788586 -3.50352e-06 1.05173e-05)
(0.00792547 -3.12922e-06 1.05426e-05)
(0.00795607 -2.45074e-06 1.06192e-05)
(0.00798933 -2.07821e-06 1.09265e-05)
(0.00801225 -1.40965e-06 1.13999e-05)
(0.010913 -1.02352e-06 1.61393e-05)
(0.0109117 4.09763e-07 1.63797e-05)
(0.0109106 1.7433e-06 1.64823e-05)
(0.010906 3.18753e-06 1.65876e-05)
(0.010893 4.33628e-06 1.67403e-05)
(0.0108711 6.21918e-06 1.69155e-05)
(0.0108359 7.74013e-06 1.71005e-05)
(0.0107931 8.45362e-06 1.70898e-05)
(0.0107377 9.83574e-06 1.68307e-05)
(0.0106714 1.06951e-05 1.657e-05)
(0.0106015 1.21716e-05 1.66575e-05)
(0.0105113 1.29742e-05 1.69522e-05)
(0.0104229 1.34609e-05 1.72892e-05)
(0.0103255 1.36216e-05 1.74938e-05)
(0.0102249 1.40446e-05 1.74703e-05)
(0.0101244 1.45933e-05 1.72046e-05)
(0.0100127 1.46699e-05 1.68167e-05)
(0.00990349 1.41827e-05 1.64752e-05)
(0.00979876 1.42805e-05 1.63294e-05)
(0.0096911 1.40325e-05 1.6498e-05)
(0.00958968 1.41152e-05 1.66427e-05)
(0.0094864 1.3267e-05 1.65576e-05)
(0.00938602 1.35118e-05 1.64826e-05)
(0.00928708 1.29795e-05 1.61825e-05)
(0.00919748 1.24002e-05 1.57869e-05)
(0.00910529 1.18356e-05 1.55457e-05)
(0.00901925 1.11174e-05 1.53957e-05)
(0.00893303 1.06822e-05 1.54864e-05)
(0.00885714 1.04505e-05 1.58729e-05)
(0.00878106 9.68783e-06 1.61206e-05)
(0.00870633 9.34549e-06 1.60087e-05)
(0.00863924 8.73697e-06 1.58877e-05)
(0.00857336 8.42635e-06 1.56917e-05)
(0.00851095 8.01948e-06 1.52755e-05)
(0.00845321 7.70111e-06 1.468e-05)
(0.00839383 7.18745e-06 1.40248e-05)
(0.00833771 7.03482e-06 1.35551e-05)
(0.0082843 6.84387e-06 1.33843e-05)
(0.00823508 6.27282e-06 1.36926e-05)
(0.00819048 5.95976e-06 1.36633e-05)
(0.00814509 5.45425e-06 1.39177e-05)
(0.00810716 5.14971e-06 1.49201e-05)
(0.00806827 4.98079e-06 1.63425e-05)
(0.00803124 4.80246e-06 1.76233e-05)
(0.00799352 4.30358e-06 1.8692e-05)
(0.0079653 3.82393e-06 1.90393e-05)
(0.00793736 3.28603e-06 1.87396e-05)
(0.00791806 2.95843e-06 1.84279e-05)
(0.00789825 2.7854e-06 1.82384e-05)
(0.00788292 2.0894e-06 1.83431e-05)
(0.00787237 1.88798e-06 1.82103e-05)
(0.00786719 1.20382e-06 1.80222e-05)
(0.00786322 3.88349e-07 1.79852e-05)
(0.00786943 2.18832e-07 1.75549e-05)
(0.00787707 -1.08363e-06 1.71914e-05)
(0.00789641 -1.48505e-06 1.7124e-05)
(0.00791913 -2.673e-06 1.72073e-05)
(0.00795173 -3.29775e-06 1.74988e-05)
(0.00798572 -4.13287e-06 1.76791e-05)
(0.00803392 -5.02891e-06 1.74079e-05)
(0.008083 -5.2599e-06 1.75495e-05)
(0.00813906 -6.37973e-06 1.77943e-05)
(0.00820108 -6.67782e-06 1.77858e-05)
(0.00827303 -7.65209e-06 1.76739e-05)
(0.00834997 -8.76998e-06 1.74425e-05)
(0.00842678 -9.21844e-06 1.72268e-05)
(0.00851124 -9.76519e-06 1.70108e-05)
(0.00860108 -1.01208e-05 1.69635e-05)
(0.00869356 -1.10396e-05 1.70031e-05)
(0.00878796 -1.10828e-05 1.68524e-05)
(0.00888938 -1.15768e-05 1.65737e-05)
(0.0089924 -1.25942e-05 1.65631e-05)
(0.00909108 -1.23813e-05 1.64785e-05)
(0.0091936 -1.29053e-05 1.63705e-05)
(0.00929628 -1.27849e-05 1.62696e-05)
(0.00940698 -1.32771e-05 1.60016e-05)
(0.00950797 -1.34444e-05 1.57281e-05)
(0.00961229 -1.36227e-05 1.56537e-05)
(0.00971645 -1.36512e-05 1.57713e-05)
(0.00981194 -1.33604e-05 1.59791e-05)
(0.00991024 -1.34097e-05 1.6191e-05)
(0.0100058 -1.36311e-05 1.62389e-05)
(0.0100968 -1.34958e-05 1.61736e-05)
(0.0101849 -1.33946e-05 1.59869e-05)
(0.0102674 -1.3091e-05 1.58252e-05)
(0.010355 -1.28252e-05 1.56685e-05)
(0.0104268 -1.26204e-05 1.55492e-05)
(0.0105006 -1.20051e-05 1.55055e-05)
(0.010569 -1.18162e-05 1.53237e-05)
(0.0106295 -1.12034e-05 1.51413e-05)
(0.0106862 -1.05526e-05 1.50176e-05)
(0.0107356 -9.885e-06 1.48725e-05)
(0.0107764 -9.00329e-06 1.48068e-05)
(0.0108065 -8.17794e-06 1.47649e-05)
(0.0108345 -7.20665e-06 1.46993e-05)
(0.0108581 -6.16884e-06 1.46349e-05)
(0.0108761 -5.04048e-06 1.47298e-05)
(0.0108935 -3.7961e-06 1.51107e-05)
(0.010911 -2.70502e-06 1.56533e-05)
(0.013773 -1.1688e-06 2.02704e-05)
(0.0137581 1.09006e-06 2.0512e-05)
(0.0137419 3.1759e-06 2.06182e-05)
(0.0137206 5.89836e-06 2.07676e-05)
(0.0136955 7.85775e-06 2.09606e-05)
(0.0136572 1.03237e-05 2.1159e-05)
(0.013608 1.25255e-05 2.13334e-05)
(0.0135411 1.44447e-05 2.13421e-05)
(0.0134615 1.66789e-05 2.11068e-05)
(0.0133737 1.80907e-05 2.08486e-05)
(0.0132756 1.97563e-05 2.09377e-05)
(0.0131672 2.09887e-05 2.12444e-05)
(0.0130499 2.21272e-05 2.16132e-05)
(0.0129335 2.31835e-05 2.1942e-05)
(0.0128078 2.32988e-05 2.20835e-05)
(0.0126804 2.4172e-05 2.18575e-05)
(0.0125553 2.42302e-05 2.14066e-05)
(0.0124263 2.40374e-05 2.09588e-05)
(0.0122976 2.40671e-05 2.07644e-05)
(0.012171 2.36408e-05 2.08997e-05)
(0.0120503 2.35711e-05 2.09868e-05)
(0.0119281 2.27791e-05 2.09267e-05)
(0.0118129 2.23158e-05 2.07293e-05)
(0.0116978 2.1162e-05 2.04128e-05)
(0.011592 2.06906e-05 2.01381e-05)
(0.0114851 1.98477e-05 1.99619e-05)
(0.0113884 1.87815e-05 1.97862e-05)
(0.0112948 1.81497e-05 1.96405e-05)
(0.0112055 1.74176e-05 1.97189e-05)
(0.0111208 1.65756e-05 1.97378e-05)
(0.0110396 1.55445e-05 1.94862e-05)
(0.0109647 1.47061e-05 1.92137e-05)
(0.0108922 1.39401e-05 1.90169e-05)
(0.010824 1.31623e-05 1.87408e-05)
(0.0107609 1.26347e-05 1.84345e-05)
(0.0106999 1.2009e-05 1.79663e-05)
(0.0106428 1.15095e-05 1.75971e-05)
(0.0105901 1.10675e-05 1.72861e-05)
(0.0105386 1.02182e-05 1.73282e-05)
(0.0104892 9.49674e-06 1.74134e-05)
(0.0104483 8.73419e-06 1.77612e-05)
(0.0104078 8.24301e-06 1.86657e-05)
(0.0103716 7.8245e-06 1.99405e-05)
(0.0103392 7.38818e-06 2.11629e-05)
(0.0103085 6.5214e-06 2.22124e-05)
(0.010284 5.73203e-06 2.27612e-05)
(0.010264 4.9356e-06 2.27483e-05)
(0.010251 4.16459e-06 2.27612e-05)
(0.010241 3.43532e-06 2.28916e-05)
(0.0102354 2.54518e-06 2.31494e-05)
(0.0102361 1.72991e-06 2.30254e-05)
(0.0102441 6.85021e-07 2.26103e-05)
(0.010252 -3.99098e-07 2.2333e-05)
(0.0102692 -1.03529e-06 2.19442e-05)
(0.0102944 -2.67421e-06 2.15539e-05)
(0.0103285 -3.93959e-06 2.15579e-05)
(0.0103686 -5.53533e-06 2.19273e-05)
(0.0104182 -6.64139e-06 2.22192e-05)
(0.0104765 -8.37748e-06 2.22767e-05)
(0.0105406 -9.53254e-06 2.20328e-05)
(0.0106122 -1.05709e-05 2.20788e-05)
(0.0106915 -1.20068e-05 2.21195e-05)
(0.0107753 -1.30353e-05 2.21679e-05)
(0.0108669 -1.41715e-05 2.21039e-05)
(0.0109593 -1.58128e-05 2.18661e-05)
(0.0110663 -1.6783e-05 2.16438e-05)
(0.0111718 -1.76814e-05 2.14881e-05)
(0.0112814 -1.82727e-05 2.1416e-05)
(0.0114006 -1.94263e-05 2.14818e-05)
(0.0115156 -1.98579e-05 2.13549e-05)
(0.0116377 -2.10203e-05 2.10232e-05)
(0.0117552 -2.13537e-05 2.08887e-05)
(0.0118798 -2.18241e-05 2.08407e-05)
(0.0119988 -2.24655e-05 2.07517e-05)
(0.0121246 -2.2455e-05 2.0626e-05)
(0.01224 -2.28813e-05 2.03389e-05)
(0.0123653 -2.30931e-05 2.0105e-05)
(0.0124823 -2.28942e-05 2.00418e-05)
(0.0125961 -2.30138e-05 2.01985e-05)
(0.012708 -2.26144e-05 2.03949e-05)
(0.0128123 -2.25655e-05 2.05509e-05)
(0.0129154 -2.24495e-05 2.05951e-05)
(0.0130173 -2.2112e-05 2.05036e-05)
(0.0131097 -2.18913e-05 2.03268e-05)
(0.0132005 -2.12684e-05 2.0137e-05)
(0.0132869 -2.0893e-05 1.99263e-05)
(0.013364 -2.01959e-05 1.97544e-05)
(0.013436 -1.94099e-05 1.95793e-05)
(0.0135065 -1.86881e-05 1.92991e-05)
(0.0135649 -1.75723e-05 1.91558e-05)
(0.0136155 -1.65855e-05 1.91053e-05)
(0.0136624 -1.5337e-05 1.90113e-05)
(0.013699 -1.39799e-05 1.89595e-05)
(0.013724 -1.24503e-05 1.88761e-05)
(0.013747 -1.09144e-05 1.87782e-05)
(0.0137623 -9.25317e-06 1.86541e-05)
(0.0137671 -7.44635e-06 1.87575e-05)
(0.0137755 -5.3488e-06 1.91821e-05)
(0.0137809 -3.32342e-06 1.97647e-05)
(0.0160063 4.88597e-07 2.27671e-05)
(0.0159765 3.49084e-06 2.29482e-05)
(0.0159465 6.85147e-06 2.30526e-05)
(0.015921 1.01937e-05 2.32384e-05)
(0.0158937 1.343e-05 2.35073e-05)
(0.0158523 1.68474e-05 2.38202e-05)
(0.0158051 1.98481e-05 2.41151e-05)
(0.0157373 2.29379e-05 2.43352e-05)
(0.015663 2.54017e-05 2.43884e-05)
(0.0155759 2.80652e-05 2.43682e-05)
(0.0154815 2.98244e-05 2.4465e-05)
(0.0153721 3.17506e-05 2.46937e-05)
(0.0152585 3.34296e-05 2.50451e-05)
(0.0151419 3.41947e-05 2.5534e-05)
(0.0150174 3.51974e-05 2.59132e-05)
(0.0148953 3.54874e-05 2.58861e-05)
(0.0147707 3.59652e-05 2.54131e-05)
(0.0146433 3.58318e-05 2.49118e-05)
(0.0145184 3.54833e-05 2.47324e-05)
(0.0143944 3.53392e-05 2.47708e-05)
(0.0142708 3.42849e-05 2.47757e-05)
(0.0141527 3.3674e-05 2.47596e-05)
(0.0140322 3.2434e-05 2.44577e-05)
(0.0139058 3.14082e-05 2.41211e-05)
(0.0137838 3.0518e-05 2.40909e-05)
(0.0136669 2.90081e-05 2.40708e-05)
(0.0135555 2.79568e-05 2.38908e-05)
(0.0134523 2.64024e-05 2.3535e-05)
(0.0133549 2.53404e-05 2.31235e-05)
(0.0132632 2.41281e-05 2.28565e-05)
(0.0131763 2.26652e-05 2.24062e-05)
(0.0130973 2.1492e-05 2.18804e-05)
(0.0130225 2.01087e-05 2.17174e-05)
(0.0129532 1.92923e-05 2.16824e-05)
(0.0128874 1.81647e-05 2.16865e-05)
(0.0128252 1.71229e-05 2.1666e-05)
(0.0127689 1.64879e-05 2.15071e-05)
(0.0127162 1.56157e-05 2.10485e-05)
(0.0126695 1.4512e-05 2.07027e-05)
(0.0126255 1.33193e-05 2.08756e-05)
(0.0125875 1.22665e-05 2.12857e-05)
(0.0125528 1.14009e-05 2.1791e-05)
(0.0125222 1.07083e-05 2.26323e-05)
(0.0124964 9.81855e-06 2.34848e-05)
(0.0124762 8.60478e-06 2.43593e-05)
(0.0124633 7.22388e-06 2.52417e-05)
(0.0124534 5.95415e-06 2.57648e-05)
(0.0124514 4.91224e-06 2.61219e-05)
(0.0124578 3.61394e-06 2.65054e-05)
(0.0124674 2.32781e-06 2.69296e-05)
(0.0124854 8.45511e-07 2.6884e-05)
(0.0125055 -4.23017e-07 2.63522e-05)
(0.0125344 -2.06692e-06 2.58322e-05)
(0.0125699 -3.6078e-06 2.5575e-05)
(0.0126141 -5.50243e-06 2.52385e-05)
(0.012667 -7.78714e-06 2.53899e-05)
(0.0127305 -9.75882e-06 2.59915e-05)
(0.0128012 -1.18533e-05 2.62958e-05)
(0.0128817 -1.39536e-05 2.62002e-05)
(0.0129684 -1.55782e-05 2.60498e-05)
(0.0130641 -1.78006e-05 2.59099e-05)
(0.0131653 -1.93702e-05 2.57608e-05)
(0.0132751 -2.13966e-05 2.58775e-05)
(0.0133879 -2.27871e-05 2.58652e-05)
(0.0135081 -2.46593e-05 2.56413e-05)
(0.0136324 -2.62249e-05 2.54855e-05)
(0.0137641 -2.73739e-05 2.55088e-05)
(0.013899 -2.88282e-05 2.55032e-05)
(0.0140358 -2.97386e-05 2.5606e-05)
(0.0141765 -3.09304e-05 2.55259e-05)
(0.0143172 -3.19688e-05 2.52045e-05)
(0.0144581 -3.2486e-05 2.49367e-05)
(0.0145985 -3.33608e-05 2.48938e-05)
(0.0147404 -3.35774e-05 2.484e-05)
(0.0148804 -3.42224e-05 2.46378e-05)
(0.0150173 -3.44738e-05 2.43954e-05)
(0.0151543 -3.45974e-05 2.42044e-05)
(0.0152773 -3.4512e-05 2.41606e-05)
(0.0153868 -3.39091e-05 2.4299e-05)
(0.0154882 -3.38532e-05 2.43946e-05)
(0.0155861 -3.3266e-05 2.43734e-05)
(0.0156757 -3.29414e-05 2.4384e-05)
(0.0157614 -3.24217e-05 2.42445e-05)
(0.0158368 -3.16707e-05 2.40672e-05)
(0.0159073 -3.11021e-05 2.37855e-05)
(0.0159667 -2.99922e-05 2.35021e-05)
(0.0160198 -2.9104e-05 2.32092e-05)
(0.0160657 -2.77546e-05 2.28272e-05)
(0.0161031 -2.63811e-05 2.24663e-05)
(0.0161309 -2.4789e-05 2.23972e-05)
(0.016149 -2.30324e-05 2.24039e-05)
(0.0161561 -2.11758e-05 2.23577e-05)
(0.0161558 -1.90099e-05 2.22749e-05)
(0.0161458 -1.66199e-05 2.21218e-05)
(0.0161278 -1.41751e-05 2.19294e-05)
(0.0161057 -1.172e-05 2.17473e-05)
(0.016081 -8.89747e-06 2.1766e-05)
(0.0160542 -6.00546e-06 2.20173e-05)
(0.016037 -2.82032e-06 2.24169e-05)
(0.018127 2.44499e-06 2.48983e-05)
(0.0180701 6.67515e-06 2.49767e-05)
(0.0180208 1.12318e-05 2.5048e-05)
(0.0179657 1.55601e-05 2.52046e-05)
(0.0179052 2.02386e-05 2.54725e-05)
(0.0178333 2.43324e-05 2.58473e-05)
(0.0177499 2.86049e-05 2.62716e-05)
(0.0176581 3.26135e-05 2.66619e-05)
(0.0175507 3.60384e-05 2.70273e-05)
(0.017432 3.95213e-05 2.72909e-05)
(0.0173069 4.20245e-05 2.74263e-05)
(0.0171743 4.4361e-05 2.75833e-05)
(0.0170364 4.62672e-05 2.7873e-05)
(0.0168946 4.77154e-05 2.83124e-05)
(0.016749 4.86654e-05 2.86438e-05)
(0.0166062 4.94111e-05 2.85074e-05)
(0.0164618 4.97528e-05 2.80229e-05)
(0.016319 4.93246e-05 2.76087e-05)
(0.0161791 4.90929e-05 2.74762e-05)
(0.0160408 4.85216e-05 2.73165e-05)
(0.0159084 4.76241e-05 2.71082e-05)
(0.0157797 4.62829e-05 2.6865e-05)
(0.015656 4.49608e-05 2.63762e-05)
(0.015537 4.31981e-05 2.62282e-05)
(0.0154234 4.17709e-05 2.65492e-05)
(0.0153132 4.00261e-05 2.68558e-05)
(0.0152114 3.79926e-05 2.68356e-05)
(0.0151161 3.63332e-05 2.67455e-05)
(0.0150274 3.43981e-05 2.62493e-05)
(0.0149451 3.26109e-05 2.56103e-05)
(0.0148692 3.07018e-05 2.49178e-05)
(0.0147991 2.86662e-05 2.41836e-05)
(0.0147361 2.71909e-05 2.39739e-05)
(0.0146744 2.56956e-05 2.41429e-05)
(0.0146174 2.41827e-05 2.42644e-05)
(0.0145671 2.26817e-05 2.4504e-05)
(0.0145212 2.14392e-05 2.48244e-05)
(0.0144805 2.02652e-05 2.43411e-05)
(0.0144466 1.86366e-05 2.36685e-05)
(0.0144162 1.70633e-05 2.38516e-05)
(0.0143899 1.55411e-05 2.4172e-05)
(0.0143678 1.42546e-05 2.40121e-05)
(0.0143521 1.30121e-05 2.38922e-05)
(0.0143447 1.16405e-05 2.42113e-05)
(0.0143391 9.86755e-06 2.48168e-05)
(0.0143431 8.06058e-06 2.61063e-05)
(0.0143518 6.12765e-06 2.73904e-05)
(0.0143671 4.32618e-06 2.78422e-05)
(0.014391 2.62354e-06 2.82767e-05)
(0.0144198 5.07816e-07 2.88311e-05)
(0.0144568 -1.28265e-06 2.90128e-05)
(0.0144987 -3.29481e-06 2.87226e-05)
(0.0145483 -5.42963e-06 2.81097e-05)
(0.0146039 -7.68604e-06 2.79827e-05)
(0.0146712 -1.06227e-05 2.7809e-05)
(0.0147453 -1.33637e-05 2.82468e-05)
(0.01483 -1.65214e-05 2.87669e-05)
(0.0149219 -1.92126e-05 2.90875e-05)
(0.0150202 -2.20275e-05 2.88881e-05)
(0.0151279 -2.45966e-05 2.87113e-05)
(0.0152409 -2.70559e-05 2.83488e-05)
(0.0153617 -2.97943e-05 2.8249e-05)
(0.0154879 -3.19101e-05 2.84201e-05)
(0.0156174 -3.41277e-05 2.84668e-05)
(0.0157507 -3.6499e-05 2.83114e-05)
(0.0158909 -3.83991e-05 2.82996e-05)
(0.0160341 -4.04916e-05 2.8505e-05)
(0.0161753 -4.17169e-05 2.86578e-05)
(0.0163209 -4.34036e-05 2.89315e-05)
(0.0164661 -4.44447e-05 2.88501e-05)
(0.0166136 -4.57873e-05 2.85735e-05)
(0.0167562 -4.66118e-05 2.82545e-05)
(0.0168972 -4.716e-05 2.81647e-05)
(0.0170344 -4.78993e-05 2.80315e-05)
(0.0171684 -4.81276e-05 2.77062e-05)
(0.017297 -4.82752e-05 2.74941e-05)
(0.017423 -4.82481e-05 2.72508e-05)
(0.0175399 -4.78498e-05 2.70482e-05)
(0.0176502 -4.71265e-05 2.69768e-05)
(0.0177534 -4.63329e-05 2.68507e-05)
(0.0178525 -4.55164e-05 2.66591e-05)
(0.01794 -4.45603e-05 2.65678e-05)
(0.018022 -4.35135e-05 2.6438e-05)
(0.0180989 -4.25513e-05 2.63533e-05)
(0.0181629 -4.12736e-05 2.60546e-05)
(0.0182201 -3.97947e-05 2.57523e-05)
(0.0182691 -3.81307e-05 2.54138e-05)
(0.0183108 -3.61033e-05 2.50839e-05)
(0.0183419 -3.40553e-05 2.48536e-05)
(0.0183646 -3.18094e-05 2.4927e-05)
(0.0183765 -2.9247e-05 2.50087e-05)
(0.0183772 -2.65494e-05 2.50225e-05)
(0.0183685 -2.35879e-05 2.4948e-05)
(0.0183481 -2.03612e-05 2.48104e-05)
(0.0183245 -1.70691e-05 2.4617e-05)
(0.0182891 -1.36907e-05 2.44539e-05)
(0.0182512 -9.80037e-06 2.44303e-05)
(0.0182089 -5.87508e-06 2.45082e-05)
(0.0181743 -1.78475e-06 2.47077e-05)
(0.0197485 6.30901e-06 2.57798e-05)
(0.019673 1.19015e-05 2.5735e-05)
(0.0196095 1.73037e-05 2.57846e-05)
(0.0195491 2.30072e-05 2.59383e-05)
(0.0194861 2.85103e-05 2.62497e-05)
(0.0194143 3.38673e-05 2.67973e-05)
(0.0193345 3.91792e-05 2.75174e-05)
(0.0192404 4.38416e-05 2.82887e-05)
(0.0191384 4.8516e-05 2.90628e-05)
(0.0190259 5.22464e-05 2.97216e-05)
(0.0189053 5.58509e-05 3.00579e-05)
(0.0187473 5.86551e-05 3.01513e-05)
(0.018588 6.0762e-05 3.03976e-05)
(0.0184253 6.26508e-05 3.07153e-05)
(0.0182625 6.34992e-05 3.08612e-05)
(0.0181 6.43605e-05 3.0558e-05)
(0.0179395 6.45958e-05 3.01025e-05)
(0.0177819 6.42362e-05 2.984e-05)
(0.0176302 6.37231e-05 2.98131e-05)
(0.0174814 6.26973e-05 2.95209e-05)
(0.0173396 6.15726e-05 2.90954e-05)
(0.0172018 5.98219e-05 2.86229e-05)
(0.0170702 5.7918e-05 2.80087e-05)
(0.0169453 5.56222e-05 2.79756e-05)
(0.016826 5.35884e-05 2.84106e-05)
(0.0167163 5.13844e-05 2.89786e-05)
(0.0166124 4.88639e-05 2.92371e-05)
(0.0165151 4.62881e-05 2.95575e-05)
(0.0164272 4.39539e-05 2.92631e-05)
(0.0163456 4.12587e-05 2.85026e-05)
(0.0162724 3.86251e-05 2.76813e-05)
(0.0162055 3.62649e-05 2.69656e-05)
(0.0161422 3.40555e-05 2.65854e-05)
(0.0160872 3.20631e-05 2.66004e-05)
(0.0160367 2.99507e-05 2.66825e-05)
(0.015993 2.79464e-05 2.69951e-05)
(0.0159548 2.60305e-05 2.73428e-05)
(0.0159228 2.41535e-05 2.70507e-05)
(0.0158986 2.2118e-05 2.66475e-05)
(0.0158774 1.99632e-05 2.67478e-05)
(0.0158645 1.78974e-05 2.66803e-05)
(0.0158569 1.60206e-05 2.5798e-05)
(0.0158559 1.40783e-05 2.48308e-05)
(0.0158638 1.19605e-05 2.47101e-05)
(0.0158758 9.66534e-06 2.50504e-05)
(0.0158935 7.25362e-06 2.61763e-05)
(0.0159222 4.52776e-06 2.77272e-05)
(0.015955 2.0349e-06 2.8342e-05)
(0.0159957 -4.63057e-07 2.87185e-05)
(0.0160463 -3.13074e-06 2.94501e-05)
(0.0161035 -5.80585e-06 3.00611e-05)
(0.0161656 -8.26808e-06 3.02147e-05)
(0.0162368 -1.11627e-05 2.96539e-05)
(0.0163166 -1.45058e-05 2.9309e-05)
(0.0164036 -1.80511e-05 2.94854e-05)
(0.0165002 -2.19209e-05 3.0111e-05)
(0.0166066 -2.56315e-05 3.04023e-05)
(0.0167198 -2.92071e-05 3.05407e-05)
(0.0168395 -3.28021e-05 3.01699e-05)
(0.0169641 -3.59542e-05 2.98824e-05)
(0.0170964 -3.92555e-05 2.97657e-05)
(0.0172346 -4.22403e-05 2.99263e-05)
(0.0173776 -4.52206e-05 3.03086e-05)
(0.0175248 -4.765e-05 3.04922e-05)
(0.0176753 -5.0463e-05 3.05013e-05)
(0.0178292 -5.30318e-05 3.04048e-05)
(0.0179869 -5.52437e-05 3.05527e-05)
(0.0181433 -5.70777e-05 3.08864e-05)
(0.0183004 -5.86478e-05 3.12756e-05)
(0.0184594 -5.98888e-05 3.13335e-05)
(0.0186143 -6.13711e-05 3.12051e-05)
(0.0187641 -6.1973e-05 3.09689e-05)
(0.0189141 -6.2659e-05 3.08426e-05)
(0.0190587 -6.30587e-05 3.05608e-05)
(0.0191989 -6.32417e-05 3.02283e-05)
(0.0193307 -6.32287e-05 2.99094e-05)
(0.0194571 -6.28786e-05 2.95853e-05)
(0.0195766 -6.17512e-05 2.91918e-05)
(0.0196898 -6.07743e-05 2.88409e-05)
(0.0197967 -5.95606e-05 2.85028e-05)
(0.019893 -5.83777e-05 2.81504e-05)
(0.0199856 -5.69463e-05 2.79473e-05)
(0.0200657 -5.53314e-05 2.78749e-05)
(0.0201411 -5.37438e-05 2.7891e-05)
(0.0202057 -5.16917e-05 2.76339e-05)
(0.0202602 -4.97329e-05 2.73318e-05)
(0.0203078 -4.73277e-05 2.69659e-05)
(0.0203433 -4.4745e-05 2.67336e-05)
(0.0203714 -4.18979e-05 2.67804e-05)
(0.0203571 -3.86521e-05 2.69326e-05)
(0.0203258 -3.52705e-05 2.69714e-05)
(0.0202819 -3.15105e-05 2.69008e-05)
(0.0202307 -2.75579e-05 2.67424e-05)
(0.0201674 -2.32841e-05 2.65726e-05)
(0.0200999 -1.88985e-05 2.6346e-05)
(0.0200277 -1.43495e-05 2.62087e-05)
(0.01995 -9.47307e-06 2.61258e-05)
(0.0198801 -4.31135e-06 2.59889e-05)
(0.0198185 8.30143e-07 2.5874e-05)
(0.021143 1.14951e-05 2.63815e-05)
(0.0210491 1.80743e-05 2.62362e-05)
(0.0209594 2.48669e-05 2.62804e-05)