/*--------------------------------*- C++ -*----------------------------------*\
| =========                 |                                                 |
| \\      /  F ield         | OpenFOAM: The Open Source CFD Toolbox           |
|  \\    /   O peration     | Version:  2306                                  |
|   \\  /    A nd           | Website:  www.openfoam.com                      |
|    \\/     M anipulation  |                                                 |
\*---------------------------------------------------------------------------*/
// * * * * * * * * * * * * * * * * * * * * * * * * * * * * * * * * * * * * * //
FoamFile
{
    version         2;
    format          ascii;
    class           volVectorField;
    location        "6658.70999999028481";
    object          U;
}

dimensions      [ 0 1 -1 0 0 0 0 ];

internalField   nonuniform List<vector> 
14751
(
(0.00436967 2.21952e-07 0)
(0.00435226 -9.7364e-08 0)
(0.00434534 3.45313e-07 1.1613e-27)
(0.00432122 4.87855e-07 -1.16437e-27)
(0.00429916 7.41206e-07 4.53064e-27)
(0.00426782 9.58278e-07 -8.6235e-26)
(0.00423354 1.13294e-06 0)
(0.00419496 1.31035e-06 2.01241e-27)
(0.00415287 1.46088e-06 2.91408e-28)
(0.00410799 1.58917e-06 2.87758e-27)
(0.00406096 1.69779e-06 5.58568e-28)
(0.00401228 1.78826e-06 -3.90021e-25)
(0.00396234 1.8573e-06 0)
(0.00391205 1.9031e-06 1.45056e-26)
(0.00386173 1.93334e-06 4.63665e-25)
(0.00381192 1.94015e-06 2.52631e-25)
(0.003763 1.9395e-06 -1.69602e-26)
(0.00371507 1.91837e-06 1.6895e-26)
(0.0036686 1.8892e-06 2.86643e-25)
(0.00362368 1.84709e-06 2.95687e-25)
(0.00358065 1.79813e-06 0)
(0.00353946 1.74332e-06 3.30157e-25)
(0.00350026 1.68245e-06 -1.95441e-26)
(0.00346316 1.61695e-06 2.02526e-26)
(0.00342825 1.54927e-06 -2.01482e-26)
(0.00339541 1.47951e-06 -6.56266e-25)
(0.00336463 1.41057e-06 0)
(0.00333587 1.33856e-06 -1.65858e-25)
(0.0033091 1.26724e-06 0)
(0.00328434 1.1945e-06 0)
(0.00326154 1.12241e-06 0)
(0.00324064 1.05079e-06 0)
(0.00322158 9.80409e-07 0)
(0.0032043 9.11039e-07 -1.01846e-26)
(0.00318875 8.43827e-07 1.01378e-26)
(0.00317483 7.77505e-07 -3.306e-25)
(0.00316244 7.13006e-07 3.26995e-25)
(0.00315161 6.49003e-07 3.13121e-25)
(0.00314226 5.8739e-07 0)
(0.00313429 5.2637e-07 0)
(0.00312763 4.66023e-07 -2.32222e-27)
(0.00312234 4.06672e-07 2.31439e-27)
(0.0031184 3.4566e-07 2.2364e-27)
(0.00311579 2.87236e-07 -2.22986e-27)
(0.00311451 2.28319e-07 -1.07152e-27)
(0.00311445 1.71186e-07 1.06887e-27)
(0.00311562 1.14165e-07 5.10684e-28)
(0.00311799 5.86448e-08 1.28444e-25)
(0.00312151 3.30187e-09 0)
(0.0031262 -5.16548e-08 -1.17524e-28)
(0.00313201 -1.06999e-07 1.17366e-28)
(0.00313899 -1.624e-07 2.20602e-28)
(0.00314713 -2.17922e-07 -2.20412e-28)
(0.0031564 -2.73359e-07 -4.10949e-28)
(0.00316681 -3.29268e-07 -1.03594e-25)
(0.00317837 -3.8512e-07 1.54933e-27)
(0.00319108 -4.41807e-07 -7.58863e-28)
(0.00320496 -4.98508e-07 0)
(0.00322 -5.56939e-07 0)
(0.00323629 -6.14607e-07 0)
(0.00325386 -6.74365e-07 3.11531e-25)
(0.00327266 -7.31254e-07 5.85015e-25)
(0.00329273 -7.88729e-07 2.22439e-27)
(0.00331394 -8.45709e-07 1.93275e-27)
(0.00333631 -9.01597e-07 1.63544e-27)
(0.00335992 -9.58411e-07 -1.16584e-25)
(0.00338477 -1.01409e-06 1.03479e-25)
(0.00341084 -1.06954e-06 0)
(0.00343809 -1.12334e-06 -2.3725e-27)
(0.00346658 -1.17709e-06 2.37948e-27)
(0.00349628 -1.22905e-06 0)
(0.00352718 -1.28019e-06 0)
(0.00355926 -1.32894e-06 0)
(0.00359246 -1.3763e-06 0)
(0.00362678 -1.42186e-06 -2.85543e-27)
(0.00366218 -1.46528e-06 5.47872e-28)
(0.00369855 -1.5049e-06 -4.622e-29)
(0.00373591 -1.54383e-06 5.96181e-28)
(0.00377408 -1.57646e-06 -1.16014e-27)
(0.00381307 -1.61183e-06 -1.1141e-27)
(0.00385274 -1.63488e-06 3.7437e-27)
(0.00389287 -1.66143e-06 0)
(0.00393346 -1.67718e-06 0)
(0.00397413 -1.68974e-06 -3.35279e-27)
(0.0040148 -1.69302e-06 3.36725e-27)
(0.00405517 -1.68746e-06 0)
(0.0040949 -1.66805e-06 0)
(0.00413366 -1.64035e-06 0)
(0.00417105 -1.59345e-06 0)
(0.00420667 -1.53672e-06 -1.42998e-25)
(0.0042401 -1.45486e-06 1.1068e-27)
(0.00427051 -1.35984e-06 0)
(0.00429826 -1.25596e-06 9.79887e-28)
(0.00432155 -1.10713e-06 4.77042e-27)
(0.00434121 -9.86138e-07 -2.38891e-27)
(0.00435494 -7.86967e-07 7.89574e-28)
(0.00436528 -6.77243e-07 1.92132e-26)
(0.00436621 -4.74135e-07 -2.53586e-28)
(0.00437456 -5.82592e-07 -1.66812e-26)
(0.00640773 1.03241e-06 4.29812e-28)
(0.00639044 5.71292e-07 0)
(0.0063867 1.28522e-06 1.26115e-24)
(0.00635803 1.62739e-06 5.23371e-26)
(0.00633121 2.05808e-06 -5.5081e-24)
(0.00628954 2.48126e-06 -8.30218e-26)
(0.00624227 2.78901e-06 -6.43849e-26)
(0.00618726 3.09658e-06 0)
(0.00612571 3.34826e-06 1.33658e-23)
(0.00605871 3.55015e-06 -8.36603e-25)
(0.0059872 3.70612e-06 0)
(0.00591204 3.82165e-06 2.72988e-25)
(0.00583392 3.89225e-06 0)
(0.00575421 3.91543e-06 0)
(0.0056735 3.90855e-06 -1.92789e-23)
(0.00559271 3.85845e-06 -2.96929e-24)
(0.00551251 3.79587e-06 2.40905e-23)
(0.00543324 3.6999e-06 6.40589e-24)
(0.00535569 3.59077e-06 -6.57759e-24)
(0.00528009 3.46109e-06 -2.09484e-25)
(0.00520704 3.32012e-06 -3.48525e-24)
(0.00513658 3.17128e-06 3.24503e-24)
(0.00506901 3.01453e-06 0)
(0.00500453 2.85171e-06 0)
(0.00494335 2.68743e-06 0)
(0.00488536 2.52322e-06 4.61584e-25)
(0.00483063 2.36294e-06 -2.59611e-23)
(0.00477913 2.20189e-06 -3.33644e-23)
(0.00473084 2.04528e-06 0)
(0.00468578 1.88999e-06 1.30148e-23)
(0.0046439 1.73912e-06 1.66805e-23)
(0.00460511 1.59226e-06 -1.47558e-23)
(0.00456936 1.45055e-06 0)
(0.00453653 1.31341e-06 1.81418e-24)
(0.00450657 1.1821e-06 -1.80001e-23)
(0.00447932 1.0556e-06 2.89523e-24)
(0.00445468 9.34309e-07 -1.10233e-24)
(0.00443264 8.16191e-07 -7.15724e-24)
(0.00441309 7.0345e-07 0)
(0.00439592 5.9468e-07 0)
(0.00438101 4.88984e-07 8.21164e-25)
(0.00436843 3.8575e-07 -8.17689e-25)
(0.00435811 2.8249e-07 2.79002e-24)
(0.00435004 1.83471e-07 3.93294e-25)
(0.00434418 8.53303e-08 0)
(0.00434041 -9.39621e-09 0)
(0.00433875 -1.03388e-07 0)
(0.00433913 -1.94129e-07 -7.97597e-25)
(0.0043415 -2.83685e-07 0)
(0.00434587 -3.72006e-07 0)
(0.0043522 -4.60169e-07 -8.00891e-26)
(0.00436052 -5.48407e-07 7.9974e-26)
(0.00437084 -6.36317e-07 0)
(0.00438312 -7.23846e-07 -1.1758e-24)
(0.00439739 -8.11972e-07 2.33548e-24)
(0.00441365 -8.99934e-07 2.66363e-25)
(0.00443192 -9.8924e-07 -2.09739e-24)
(0.00445222 -1.07874e-06 -2.55038e-25)
(0.00447456 -1.17072e-06 3.33848e-24)
(0.00449904 -1.26321e-06 4.63511e-25)
(0.00452568 -1.35869e-06 -6.28382e-25)
(0.00455446 -1.45148e-06 1.2623e-26)
(0.00458541 -1.54517e-06 0)
(0.00461842 -1.63798e-06 -6.79317e-25)
(0.0046535 -1.73061e-06 6.80895e-25)
(0.00469076 -1.82543e-06 7.5353e-26)
(0.0047302 -1.91974e-06 -6.88353e-26)
(0.00477177 -2.01387e-06 0)
(0.00481545 -2.10669e-06 0)
(0.0048613 -2.20027e-06 -3.13803e-24)
(0.00490927 -2.29186e-06 0)
(0.00495934 -2.38292e-06 5.1627e-25)
(0.00501147 -2.4708e-06 -5.18332e-25)
(0.00506561 -2.55667e-06 0)
(0.00512171 -2.64019e-06 1.97026e-27)
(0.00517973 -2.72019e-06 0)
(0.00523951 -2.79388e-06 -3.62787e-28)
(0.00530105 -2.86537e-06 0)
(0.00536408 -2.92573e-06 1.19165e-24)
(0.00542864 -2.98895e-06 0)
(0.00549446 -3.0292e-06 -2.59241e-27)
(0.00556122 -3.07117e-06 -3.31792e-24)
(0.00562891 -3.09235e-06 3.93985e-24)
(0.00569695 -3.10257e-06 -4.50889e-24)
(0.00576516 -3.09398e-06 0)
(0.00583305 -3.06522e-06 0)
(0.00590009 -3.00829e-06 0)
(0.00596574 -2.93139e-06 -6.07206e-24)
(0.00602937 -2.81766e-06 -6.24131e-24)
(0.0060903 -2.68081e-06 9.86714e-26)
(0.00614781 -2.491e-06 1.92624e-25)
(0.00620067 -2.27348e-06 -1.93388e-25)
(0.00624927 -2.03031e-06 2.17936e-26)
(0.00629116 -1.70506e-06 -2.71239e-26)
(0.0063275 -1.40752e-06 -4.97848e-24)
(0.00635531 -9.80653e-07 1.40574e-25)
(0.00637809 -6.51718e-07 -3.39103e-24)
(0.00638862 -2.99466e-07 0)
(0.00640859 -4.99151e-07 1.16476e-26)
(0.00820951 1.57219e-06 -1.47894e-27)
(0.00819075 9.97926e-07 -2.57739e-26)
(0.00818831 2.32151e-06 -1.25161e-24)
(0.00815726 3.21248e-06 -7.50135e-24)
(0.00812805 4.12616e-06 5.80419e-24)
(0.00808053 5.1043e-06 -3.70297e-25)
(0.00802522 5.83443e-06 0)
(0.00795966 6.5693e-06 0)
(0.00788516 7.19284e-06 3.56618e-23)
(0.00780304 7.71373e-06 -1.52261e-24)
(0.00771452 8.1392e-06 -5.40831e-23)
(0.00762068 8.47341e-06 -6.34364e-23)
(0.00752248 8.712e-06 3.43979e-25)
(0.00742158 8.84849e-06 -7.93152e-23)
(0.0073188 8.91019e-06 1.04948e-22)
(0.00721535 8.878e-06 -5.13261e-24)
(0.00711212 8.80316e-06 5.5237e-23)
(0.00700965 8.65329e-06 1.13317e-23)
(0.00690897 8.46204e-06 0)
(0.00681043 8.22248e-06 9.30542e-23)
(0.00671484 7.94717e-06 -9.58341e-23)
(0.00662232 7.64742e-06 0)
(0.00653329 7.32254e-06 0)
(0.00644803 6.97957e-06 0)
(0.00636682 6.6251e-06 -5.47841e-23)
(0.00628962 6.26442e-06 0)
(0.00621656 5.90616e-06 -3.48351e-23)
(0.00614762 5.54234e-06 3.4936e-23)
(0.00608281 5.18476e-06 -5.60611e-23)
(0.00602215 4.82788e-06 -1.40193e-23)
(0.00596558 4.47789e-06 -1.74937e-23)
(0.00591303 4.13466e-06 1.74252e-23)
(0.00586443 3.80084e-06 5.89253e-23)
(0.00581965 3.47566e-06 -6.88269e-24)
(0.00577862 3.16182e-06 1.70765e-23)
(0.00574117 2.85705e-06 3.36872e-24)
(0.00570719 2.56335e-06 -1.68964e-24)
(0.00567664 2.27641e-06 4.94449e-24)
(0.00564941 2.00044e-06 0)
(0.00562537 1.73208e-06 -1.28246e-23)
(0.00560439 1.47108e-06 -1.56606e-24)
(0.00558653 1.21542e-06 1.56059e-24)
(0.00557168 9.60917e-07 -3.04143e-24)
(0.00555982 7.15196e-07 0)
(0.00555093 4.71338e-07 5.83553e-24)
(0.00554486 2.34264e-07 -3.52751e-25)
(0.00554162 -8.60642e-10 3.51892e-25)
(0.00554115 -2.29288e-07 5.11128e-25)
(0.00554339 -4.5505e-07 -1.15416e-24)
(0.00554833 -6.78456e-07 -7.97109e-26)
(0.00555594 -9.01675e-07 1.28592e-24)
(0.00556626 -1.12506e-06 0)
(0.00557928 -1.34821e-06 -2.86905e-25)
(0.00559497 -1.5711e-06 1.96651e-24)
(0.00561338 -1.79554e-06 -2.72289e-24)
(0.00563449 -2.02025e-06 -8.8515e-24)
(0.00565834 -2.24801e-06 1.53164e-24)
(0.00568496 -2.47666e-06 9.77169e-25)
(0.00571434 -2.71033e-06 -4.52678e-24)
(0.00574658 -2.94505e-06 4.67229e-26)
(0.00578173 -3.18565e-06 -1.30389e-23)
(0.00581973 -3.42208e-06 1.23795e-23)
(0.00586063 -3.65993e-06 2.14292e-24)
(0.00590433 -3.897e-06 9.3904e-24)
(0.00595085 -4.13342e-06 1.0002e-23)
(0.00600026 -4.3736e-06 1.0307e-23)
(0.00605255 -4.61222e-06 -2.10044e-24)
(0.00610768 -4.85012e-06 1.00095e-24)
(0.00616559 -5.08435e-06 -1.3569e-23)
(0.00622632 -5.31856e-06 1.59374e-24)
(0.00628981 -5.54752e-06 2.57465e-24)
(0.00635601 -5.77341e-06 -1.18668e-24)
(0.00642485 -5.99128e-06 7.77991e-25)
(0.00649623 -6.20278e-06 -1.35784e-24)
(0.00657009 -6.40717e-06 5.79332e-25)
(0.00664634 -6.60102e-06 0)
(0.00672475 -6.78001e-06 -7.29288e-25)
(0.00680529 -6.94936e-06 -1.54032e-24)
(0.00688763 -7.09533e-06 3.31737e-24)
(0.00697175 -7.23801e-06 7.22147e-24)
(0.00705729 -7.33418e-06 -1.3875e-24)
(0.00714382 -7.42345e-06 4.48545e-24)
(0.00723129 -7.46769e-06 -3.66652e-24)
(0.00731894 -7.48042e-06 2.09042e-23)
(0.00740652 -7.44839e-06 1.97634e-23)
(0.00749336 -7.36583e-06 -2.1337e-23)
(0.00757875 -7.22059e-06 0)
(0.00766199 -7.02442e-06 4.17708e-24)
(0.00774226 -6.74818e-06 7.14886e-24)
(0.00781868 -6.41224e-06 -2.2378e-23)
(0.00789031 -5.96597e-06 -2.35814e-23)
(0.00795561 -5.45729e-06 1.69077e-25)
(0.00801504 -4.88494e-06 -2.12732e-23)
(0.0080659 -4.17188e-06 0)
(0.00810953 -3.47779e-06 4.6413e-24)
(0.00814294 -2.59763e-06 -2.54104e-25)
(0.00817015 -1.83862e-06 3.01036e-24)
(0.00818418 -1.18176e-06 4.06151e-26)
(0.00820906 -1.21941e-06 2.09502e-26)
(0.0098132 2.09337e-06 1.00695e-27)
(0.0097917 1.65218e-06 0)
(0.0097885 3.71768e-06 8.60936e-24)
(0.00975537 5.41749e-06 6.91563e-24)
(0.00972379 6.99286e-06 8.3839e-26)
(0.00967182 8.71756e-06 -4.88781e-23)
(0.00961026 1.00532e-05 0)
(0.00953656 1.13829e-05 0)
(0.0094521 1.25336e-05 -1.24568e-22)
(0.00935833 1.35127e-05 -3.12371e-24)
(0.00925668 1.43316e-05 -4.62105e-23)
(0.00914845 1.49873e-05 5.86176e-23)
(0.0090348 1.5481e-05 -1.30742e-22)
(0.00891759 1.57994e-05 6.84332e-23)
(0.00879783 1.59782e-05 -7.30859e-23)
(0.00867694 1.5997e-05 1.54762e-22)
(0.008556 1.59229e-05 -8.14109e-23)
(0.00843567 1.57187e-05 1.80896e-22)
(0.0083172 1.54288e-05 -1.08236e-23)
(0.00820102 1.50526e-05 -1.02891e-22)
(0.00808808 1.46028e-05 1.17361e-22)
(0.0079786 1.41026e-05 -1.18582e-23)
(0.00787308 1.35513e-05 1.23886e-23)
(0.00777185 1.29644e-05 -1.23412e-23)
(0.00767524 1.23486e-05 3.78159e-23)
(0.00758328 1.17151e-05 1.26735e-23)
(0.00749614 1.10792e-05 5.79259e-23)
(0.00741382 1.04294e-05 -1.03387e-22)
(0.00733635 9.78736e-06 5.19271e-23)
(0.00726376 9.14462e-06 9.73669e-23)
(0.00719599 8.51092e-06 -1.10218e-22)
(0.00713296 7.88694e-06 6.46065e-24)
(0.0070746 7.27727e-06 -5.14862e-23)
(0.00702079 6.68128e-06 0)
(0.00697143 6.10324e-06 -5.07622e-23)
(0.00692636 5.53865e-06 -3.13305e-24)
(0.00688546 4.99364e-06 2.3568e-26)
(0.00684866 4.46039e-06 -4.30277e-23)
(0.00681587 3.94503e-06 -5.15706e-23)
(0.00678693 3.44055e-06 3.58665e-23)
(0.00676173 2.95053e-06 1.46066e-24)
(0.00674029 2.47102e-06 -1.45624e-24)
(0.00672248 1.99463e-06 0)
(0.0067083 1.53386e-06 0)
(0.0066977 1.07503e-06 -5.45252e-24)
(0.00669055 6.26996e-07 0)
(0.00668686 1.83323e-07 1.04145e-23)
(0.00668652 -2.49369e-07 0)
(0.00668949 -6.77694e-07 1.23614e-24)
(0.00669578 -1.10234e-06 3.75553e-26)
(0.00670534 -1.52666e-06 -1.45367e-24)
(0.00671821 -1.95069e-06 8.4296e-25)
(0.00673439 -2.37534e-06 -5.55524e-25)
(0.00675385 -2.80012e-06 0)
(0.00677663 -3.22772e-06 -9.96265e-25)
(0.00680273 -3.65637e-06 9.76121e-24)
(0.00683218 -4.09015e-06 -9.55863e-25)
(0.00686502 -4.52588e-06 0)
(0.00690122 -4.96929e-06 -1.19743e-23)
(0.00694089 -5.41272e-06 -1.30364e-23)
(0.00698407 -5.86651e-06 1.06724e-23)
(0.00703068 -6.31411e-06 -1.01418e-23)
(0.00708078 -6.7649e-06 2.1555e-23)
(0.00713429 -7.21634e-06 -1.13982e-23)
(0.0071912 -7.66428e-06 -9.35239e-24)
(0.00725156 -8.11676e-06 -6.5502e-24)
(0.00731534 -8.56559e-06 -2.05998e-24)
(0.00738249 -9.0129e-06 1.67807e-24)
(0.00745292 -9.45138e-06 -1.58625e-23)
(0.00752665 -9.88703e-06 2.37972e-23)
(0.00760356 -1.03119e-05 1.10562e-24)
(0.0076836 -1.07283e-05 -1.10794e-24)
(0.00776664 -1.11289e-05 1.45324e-24)
(0.00785255 -1.15153e-05 -1.45641e-24)
(0.00794122 -1.1886e-05 7.11035e-25)
(0.00803252 -1.22347e-05 -7.12619e-25)
(0.00812617 -1.25554e-05 2.0637e-24)
(0.00822207 -1.28531e-05 2.48638e-24)
(0.00831984 -1.31105e-05 -1.19325e-23)
(0.00841937 -1.33502e-05 -6.69723e-24)
(0.00852024 -1.35139e-05 -1.81974e-23)
(0.00862191 -1.36521e-05 -2.27865e-23)
(0.00872426 -1.3713e-05 2.70033e-23)
(0.00882642 -1.3711e-05 -1.54483e-23)
(0.00892802 -1.36268e-05 1.70663e-23)
(0.00902827 -1.34486e-05 1.85623e-23)
(0.00912629 -1.31609e-05 -3.93598e-23)
(0.00922123 -1.27774e-05 -4.10547e-23)
(0.00931216 -1.22567e-05 -1.31966e-24)
(0.00939801 -1.16236e-05 2.38527e-23)
(0.00947769 -1.0809e-05 1.96589e-23)
(0.00954948 -9.8812e-06 0)
(0.0096138 -8.83947e-06 5.78902e-23)
(0.00966804 -7.5958e-06 -2.27946e-25)
(0.00971351 -6.34101e-06 2.64375e-25)
(0.00974759 -4.8637e-06 1.93222e-25)
(0.0097745 -3.50468e-06 -1.93513e-25)
(0.00978832 -2.4228e-06 1.20714e-29)
(0.00981348 -2.05179e-06 -9.55279e-27)
(0.011254 2.70284e-06 2.4063e-29)
(0.0112284 2.66873e-06 -4.31042e-26)
(0.0112224 5.58878e-06 3.40872e-26)
(0.0111863 8.31586e-06 0)
(0.0111515 1.07081e-05 3.44724e-23)
(0.0110952 1.33305e-05 4.46066e-23)
(0.0110276 1.54347e-05 0)
(0.0109464 1.74958e-05 0)
(0.0108531 1.93002e-05 7.62427e-23)
(0.0107492 2.08497e-05 8.95439e-23)
(0.0106363 2.21612e-05 9.41139e-23)
(0.010516 2.32213e-05 0)
(0.0103895 2.40377e-05 2.32866e-22)
(0.0102589 2.45897e-05 0)
(0.0101253 2.49211e-05 1.33984e-22)
(0.00999023 2.50136e-05 -1.41975e-22)
(0.00985503 2.49461e-05 -1.30174e-22)
(0.00972041 2.46833e-05 -1.75096e-22)
(0.00958775 2.42766e-05 -1.62059e-22)
(0.00945759 2.37357e-05 0)
(0.00933096 2.30735e-05 -1.72322e-22)
(0.00920813 2.23266e-05 0)
(0.00908968 2.14952e-05 1.80149e-22)
(0.00897597 2.06041e-05 1.83204e-22)
(0.00886737 1.96617e-05 -1.16943e-23)
(0.00876396 1.86868e-05 -1.54957e-25)
(0.00866594 1.77002e-05 1.17599e-23)
(0.00857332 1.66901e-05 -9.51374e-23)
(0.00848615 1.56871e-05 -1.19683e-23)
(0.00840444 1.46814e-05 -8.37111e-23)
(0.00832815 1.36864e-05 1.01546e-22)
(0.00825721 1.27042e-05 -5.95361e-24)
(0.00819153 1.17416e-05 -5.92644e-24)
(0.00813098 1.07984e-05 5.90459e-24)
(0.00807548 9.88051e-06 4.68454e-23)
(0.00802485 8.98171e-06 9.28531e-23)
(0.00797896 8.11191e-06 0)
(0.00793775 7.26015e-06 4.82574e-23)
(0.0079011 6.4341e-06 4.20319e-23)
(0.00786888 5.62378e-06 -1.93618e-23)
(0.00784096 4.83583e-06 -2.73815e-24)
(0.00781734 4.06408e-06 2.65501e-24)
(0.0077979 3.29927e-06 -2.64832e-24)
(0.0077826 2.55701e-06 0)
(0.00777142 1.81784e-06 0)
(0.00776422 1.09382e-06 0)
(0.00776099 3.78233e-07 -9.65095e-24)
(0.00776163 -3.21638e-07 0)
(0.0077661 -1.01569e-06 4.72583e-24)
(0.00777441 -1.7047e-06 -1.41193e-25)
(0.0077865 -2.39312e-06 2.66448e-25)
(0.00780243 -3.08091e-06 2.49719e-25)
(0.00782219 -3.77028e-06 4.81489e-25)
(0.00784576 -4.46043e-06 -9.96449e-25)
(0.00787317 -5.15487e-06 -1.50926e-23)
(0.00790443 -5.85149e-06 0)
(0.00793955 -6.55546e-06 -1.69932e-24)
(0.00797859 -7.26274e-06 7.78273e-26)
(0.00802151 -7.98017e-06 1.42858e-23)
(0.00806841 -8.69698e-06 1.20271e-23)
(0.0081193 -9.42795e-06 -1.38104e-24)
(0.00817413 -1.01514e-05 -1.21406e-24)
(0.00823293 -1.0879e-05 -1.75108e-23)
(0.00829562 -1.1608e-05 2.25811e-24)
(0.00836219 -1.23303e-05 -2.26121e-24)
(0.00843265 -1.30566e-05 -1.91214e-24)
(0.00850696 -1.37759e-05 3.28869e-23)
(0.00858504 -1.4491e-05 -1.73992e-24)
(0.00866678 -1.51903e-05 2.35634e-23)
(0.00875215 -1.58814e-05 -1.83111e-23)
(0.00884102 -1.65534e-05 -3.59327e-25)
(0.00893326 -1.72086e-05 -2.06186e-24)
(0.00902875 -1.78365e-05 0)
(0.00912729 -1.84386e-05 -1.99239e-23)
(0.00922872 -1.90122e-05 1.00857e-24)
(0.00933288 -1.95471e-05 0)
(0.00943943 -2.0036e-05 -1.28926e-24)
(0.00954819 -2.04821e-05 -1.29713e-24)
(0.00965872 -2.08657e-05 7.57659e-24)
(0.00977086 -2.12079e-05 0)
(0.0098841 -2.14392e-05 1.92551e-23)
(0.00999781 -2.16149e-05 2.16437e-23)
(0.0101118 -2.16733e-05 -2.79276e-23)
(0.0102251 -2.16255e-05 0)
(0.0103371 -2.14476e-05 -3.37559e-23)
(0.0104472 -2.11199e-05 -3.22138e-23)
(0.0105541 -2.0625e-05 3.87812e-23)
(0.0106569 -1.99755e-05 7.36442e-23)
(0.0107547 -1.91208e-05 -3.76661e-23)
(0.0108461 -1.80862e-05 -1.22065e-24)
(0.01093 -1.67906e-05 3.87109e-23)
(0.0110045 -1.53177e-05 -3.7809e-23)
(0.0110701 -1.36672e-05 -3.53709e-23)
(0.011124 -1.17548e-05 0)
(0.0111679 -9.78457e-06 -2.9084e-23)
(0.0111996 -7.57676e-06 -2.48979e-25)
(0.0112234 -5.46204e-06 -1.7824e-25)
(0.0112345 -3.81329e-06 -1.11184e-29)
(0.0112567 -2.80848e-06 -8.77409e-27)
(0.0125601 3.49134e-06 -2.23108e-29)
(0.0125292 4.14211e-06 2.23974e-29)
(0.0125184 8.03145e-06 -7.49314e-24)
(0.0124782 1.19795e-05 -2.25344e-23)
(0.0124387 1.53324e-05 3.1885e-23)
(0.0123774 1.8987e-05 -8.24909e-23)
(0.0123033 2.20149e-05 0)
(0.0122148 2.49373e-05 1.21279e-22)
(0.0121128 2.75135e-05 1.43143e-22)
(0.0119994 2.97339e-05 -8.24416e-23)
(0.0118763 3.16254e-05 -1.78898e-22)
(0.0117451 3.31614e-05 -2.03566e-22)
(0.0116073 3.43573e-05 -3.15514e-22)
(0.0114651 3.51855e-05 0)
(0.0113196 3.5697e-05 1.23338e-22)
(0.0111727 3.58795e-05 1.67705e-23)
(0.0110256 3.58188e-05 1.20716e-22)
(0.0108792 3.5489e-05 -1.83166e-23)
(0.010735 3.49441e-05 1.86443e-22)
(0.0105935 3.42083e-05 -3.27167e-22)
(0.0104558 3.32946e-05 1.5861e-22)
(0.0103224 3.2254e-05 -2.05488e-23)
(0.0101937 3.10886e-05 -1.45334e-22)
(0.0100701 2.98334e-05 -3.15951e-22)
(0.00995213 2.85002e-05 -2.1184e-23)
(0.0098398 2.71164e-05 1.72785e-22)
(0.00973336 2.57076e-05 -1.09425e-23)
(0.00963282 2.42645e-05 1.86194e-22)
(0.00953824 2.28255e-05 -1.75876e-22)
(0.00944964 2.13813e-05 -1.10284e-23)
(0.00936697 1.99489e-05 -1.6509e-22)
(0.00929014 1.85324e-05 0)
(0.00921907 1.71409e-05 0)
(0.00915364 1.57752e-05 5.42943e-24)
(0.00909375 1.44427e-05 -2.43236e-26)
(0.00903922 1.3136e-05 -1.71413e-22)
(0.00898994 1.18684e-05 -5.32096e-24)
(0.00894581 1.06262e-05 8.38888e-23)
(0.00890672 9.41834e-06 -8.28392e-23)
(0.00887254 8.23247e-06 0)
(0.00884315 7.07732e-06 3.77367e-23)
(0.00881852 5.94459e-06 2.49125e-24)
(0.00879853 4.82412e-06 2.40985e-24)
(0.00878315 3.73311e-06 -2.40491e-24)
(0.00877234 2.64738e-06 -1.15672e-24)
(0.00876597 1.5819e-06 2.28578e-24)
(0.00876401 5.30582e-07 1.6744e-23)
(0.00876635 -5.0049e-07 5.38295e-25)
(0.00877299 -1.52468e-06 -5.37459e-25)
(0.00878391 -2.54252e-06 -1.27307e-25)
(0.00879909 -3.55946e-06 1.27196e-25)
(0.00881855 -4.57558e-06 0)
(0.0088423 -5.59435e-06 1.50553e-23)
(0.00887031 -6.61482e-06 0)
(0.00890262 -7.64118e-06 1.40058e-23)
(0.00893924 -8.67123e-06 -2.69333e-23)
(0.00898018 -9.71085e-06 0)
(0.00902548 -1.07554e-05 -2.46947e-23)
(0.00907511 -1.18123e-05 1.43375e-24)
(0.00912915 -1.28683e-05 -1.43492e-24)
(0.0091876 -1.39414e-05 -4.23405e-23)
(0.0092504 -1.5006e-05 -3.99082e-23)
(0.00931759 -1.60747e-05 0)
(0.00938906 -1.71446e-05 2.10151e-24)
(0.0094648 -1.82041e-05 -3.6441e-23)
(0.00954479 -1.92654e-05 1.94531e-24)
(0.00962896 -2.03146e-05 -8.4915e-23)
(0.0097172 -2.1355e-05 6.15139e-24)
(0.00980939 -2.23703e-05 4.1076e-23)
(0.00990545 -2.3369e-05 2.25018e-24)
(0.0100052 -2.43374e-05 -2.25514e-24)
(0.0101085 -2.52766e-05 0)
(0.0102152 -2.61736e-05 2.16461e-23)
(0.010325 -2.70285e-05 1.98438e-23)
(0.0104377 -2.78368e-05 -9.44517e-25)
(0.0105532 -2.85848e-05 0)
(0.010671 -2.92631e-05 -5.10647e-24)
(0.0107908 -2.98716e-05 -5.67279e-25)
(0.0109122 -3.03895e-05 -1.21172e-23)
(0.0110349 -3.0832e-05 -2.84242e-24)
(0.0111585 -3.11235e-05 1.69463e-24)
(0.011282 -3.13164e-05 2.6789e-24)
(0.0114053 -3.13438e-05 -4.91522e-23)
(0.0115272 -3.12092e-05 0)
(0.0116473 -3.08859e-05 5.50715e-23)
(0.0117645 -3.03454e-05 3.78967e-23)
(0.0118777 -2.95683e-05 -4.22679e-24)
(0.0119858 -2.8564e-05 -3.32602e-23)
(0.0120877 -2.72764e-05 3.40158e-23)
(0.012182 -2.57255e-05 2.27474e-24)
(0.0122674 -2.38255e-05 -3.61064e-23)
(0.0123419 -2.16727e-05 1.0489e-22)
(0.012406 -1.92687e-05 0)
(0.0124574 -1.65471e-05 0)
(0.0124975 -1.37083e-05 2.74942e-23)
(0.0125248 -1.06362e-05 -2.32215e-23)
(0.0125434 -7.61224e-06 -1.65852e-25)
(0.0125498 -5.23724e-06 1.03487e-29)
(0.0125668 -3.38681e-06 -8.19746e-27)
(0.0137534 4.56127e-06 0)
(0.0137159 6.17419e-06 -5.4922e-24)
(0.0136987 1.11468e-05 3.75108e-26)
(0.0136531 1.64859e-05 -2.11404e-23)
(0.0136076 2.09362e-05 -1.18675e-22)
(0.01354 2.57412e-05 7.64396e-23)
(0.0134589 2.98292e-05 9.51411e-23)
(0.0133626 3.3729e-05 -1.1333e-22)
(0.0132523 3.71903e-05 -1.30987e-22)
(0.0131296 4.01751e-05 -4.9173e-24)
(0.0129967 4.27207e-05 1.7109e-22)
(0.0128554 4.47904e-05 1.82951e-22)
(0.0127074 4.64101e-05 2.11918e-22)
(0.0125548 4.7546e-05 -1.29031e-23)
(0.0123991 4.82551e-05 -2.28574e-22)
(0.0122419 4.8535e-05 -2.41801e-22)
(0.0120848 4.84741e-05 -2.54177e-22)
(0.0119285 4.80624e-05 1.69371e-23)
(0.0117747 4.73529e-05 -1.68938e-23)
(0.0116239 4.63879e-05 3.03104e-22)
(0.0114773 4.51806e-05 2.75004e-22)
(0.0113353 4.37971e-05 0)
(0.0111985 4.22427e-05 0)
(0.0110672 4.05632e-05 1.55814e-22)
(0.0109419 3.87755e-05 -1.9888e-23)
(0.0108227 3.69156e-05 -1.5998e-22)
(0.0107098 3.50144e-05 3.01216e-23)
(0.0106033 3.3067e-05 3.13865e-22)
(0.0105032 3.11186e-05 1.52442e-22)
(0.0104095 2.91619e-05 1.83218e-22)
(0.0103221 2.72178e-05 3.05371e-22)
(0.0102411 2.52927e-05 1.62514e-22)
(0.0101662 2.33983e-05 1.72051e-22)
(0.0100974 2.15365e-05 -1.71131e-22)
(0.0100346 1.97163e-05 1.00193e-23)
(0.00997756 1.79297e-05 2.33103e-22)
(0.00992619 1.61927e-05 4.92874e-24)
(0.00988039 1.44894e-05 -7.77409e-23)
(0.00984005 1.28297e-05 1.488e-22)
(0.00980504 1.11995e-05 -7.09865e-23)
(0.00977523 9.60877e-06 -3.73194e-23)
(0.0097506 8.04719e-06 7.11625e-23)
(0.009731 6.50432e-06 4.50972e-24)
(0.00971642 4.99777e-06 -2.23273e-24)
(0.0097068 3.49952e-06 3.47198e-23)
(0.00970204 2.02851e-06 -3.39866e-23)
(0.00970203 5.78452e-07 -1.661e-23)
(0.00970674 -8.48333e-07 0)
(0.00971614 -2.26708e-06 -1.19724e-23)
(0.00973023 -3.67829e-06 1.21734e-25)
(0.00974898 -5.08831e-06 7.46848e-24)
(0.00977242 -6.49745e-06 0)
(0.00980055 -7.91047e-06 2.37578e-27)
(0.00983334 -9.3263e-06 0)
(0.00987084 -1.07498e-05 0)
(0.00991304 -1.21787e-05 5.02149e-23)
(0.00995996 -1.36194e-05 2.40872e-23)
(0.0100116 -1.50668e-05 2.30332e-23)
(0.010068 -1.65284e-05 4.39483e-23)
(0.0101292 -1.79889e-05 3.92319e-23)
(0.0101951 -1.94686e-05 8.16289e-23)
(0.0102658 -2.09389e-05 3.50181e-23)
(0.0103412 -2.2412e-05 7.01546e-23)
(0.0104211 -2.38849e-05 6.74671e-23)
(0.0105057 -2.5343e-05 9.09192e-23)
(0.0105948 -2.67987e-05 5.58536e-23)
(0.0106884 -2.82356e-05 5.09672e-23)
(0.0107862 -2.96562e-05 -2.72635e-24)
(0.0108882 -3.10401e-05 -7.97124e-23)
(0.0109943 -3.23956e-05 -3.63302e-23)
(0.0111041 -3.37063e-05 0)
(0.0112176 -3.49712e-05 -5.44299e-23)
(0.0113345 -3.61749e-05 -6.54799e-23)
(0.0114546 -3.73152e-05 2.38847e-24)
(0.0115775 -3.83855e-05 1.17955e-24)
(0.011703 -3.93679e-05 -5.89429e-25)
(0.0118307 -4.02508e-05 4.18916e-24)
(0.0119602 -4.10295e-05 0)
(0.012091 -4.1683e-05 1.30114e-23)
(0.0122228 -4.22162e-05 1.58035e-24)
(0.012355 -4.25525e-05 4.7798e-25)
(0.0124866 -4.27339e-05 -4.57615e-24)
(0.0126174 -4.26931e-05 4.6222e-23)
(0.0127462 -4.24221e-05 5.30863e-23)
(0.0128724 -4.18931e-05 -1.14006e-22)
(0.0129948 -4.10676e-05 -3.86626e-24)
(0.0131122 -3.99249e-05 6.75761e-23)
(0.0132235 -3.84661e-05 -6.64588e-23)
(0.0133273 -3.66334e-05 0)
(0.0134222 -3.44414e-05 -1.06578e-24)
(0.0135069 -3.18077e-05 2.23782e-26)
(0.0135794 -2.88377e-05 -6.46836e-23)
(0.0136403 -2.55378e-05 0)
(0.0136874 -2.18672e-05 5.74614e-23)
(0.0137221 -1.80074e-05 -3.73192e-25)
(0.0137434 -1.39346e-05 2.23468e-23)
(0.0137554 -9.84735e-06 0)
(0.0137556 -6.57729e-06 0)
(0.0137655 -3.68259e-06 7.68162e-27)
(0.0148505 6.0247e-06 -2.65779e-27)
(0.0148052 8.8697e-06 2.93323e-26)
(0.0147804 1.50354e-05 -2.57632e-23)
(0.0147282 2.19123e-05 7.96626e-23)
(0.0146753 2.75873e-05 5.59881e-23)
(0.0146006 3.36484e-05 -1.43967e-22)
(0.0145116 3.89163e-05 -8.89774e-23)
(0.0144072 4.38889e-05 2.11057e-22)
(0.0142883 4.83278e-05 -2.48692e-22)
(0.0141568 5.21642e-05 2.81776e-22)
(0.0140146 5.54305e-05 5.08831e-24)
(0.0138638 5.80787e-05 -1.62124e-23)
(0.0137064 6.0152e-05 1.11133e-23)
(0.0135446 6.16146e-05 0)
(0.0133798 6.25279e-05 -4.3885e-22)
(0.0132137 6.29027e-05 2.38673e-22)
(0.013048 6.28266e-05 2.36435e-22)
(0.0128834 6.23109e-05 1.57426e-23)
(0.0127217 6.14052e-05 4.80409e-22)
(0.0125634 6.01722e-05 1.62569e-23)
(0.0124096 5.86262e-05 -2.72333e-22)
(0.0122608 5.68485e-05 2.78795e-22)
(0.0121176 5.48488e-05 0)
(0.0119803 5.26846e-05 0)
(0.0118494 5.03786e-05 0)
(0.011725 4.79764e-05 0)
(0.0116073 4.5514e-05 0)
(0.0114964 4.29924e-05 -3.19967e-22)
(0.0113923 4.04633e-05 1.88201e-23)
(0.011295 3.79225e-05 -1.51427e-22)
(0.0112045 3.53947e-05 -1.60902e-22)
(0.0111206 3.28892e-05 -4.43996e-22)
(0.0110433 3.04201e-05 -1.50657e-22)
(0.0109725 2.7991e-05 2.99787e-22)
(0.0109079 2.56123e-05 0)
(0.0108496 2.32758e-05 -1.47766e-22)
(0.0107972 2.09998e-05 1.46375e-22)
(0.0107509 1.87668e-05 1.44829e-22)
(0.0107103 1.65872e-05 -7.60115e-23)
(0.0106754 1.44455e-05 7.5062e-23)
(0.0106461 1.23523e-05 4.31995e-24)
(0.0106223 1.02956e-05 -4.31657e-24)
(0.0106039 8.26493e-06 -6.73597e-23)
(0.0105909 6.27727e-06 2.048e-24)
(0.0105832 4.3024e-06 -3.648e-23)
(0.0105807 2.36388e-06 3.37573e-23)
(0.0105833 4.52907e-07 0)
(0.010591 -1.43367e-06 -4.67904e-25)
(0.0106037 -3.31058e-06 7.85692e-24)
(0.0106214 -5.17891e-06 -2.24808e-25)
(0.0106442 -7.04579e-06 1.03752e-27)
(0.010672 -8.91188e-06 -8.34251e-25)
(0.0107049 -1.07832e-05 -1.3106e-23)
(0.0107428 -1.26586e-05 8.07304e-25)
(0.0107858 -1.45435e-05 1.50046e-24)
(0.0108338 -1.64359e-05 -2.5051e-23)
(0.0108869 -1.83419e-05 -2.53613e-23)
(0.010945 -2.02565e-05 2.76623e-24)
(0.0110083 -2.21867e-05 -4.37798e-23)
(0.0110766 -2.41158e-05 -3.67189e-23)
(0.01115 -2.60648e-05 -1.11554e-22)
(0.0112284 -2.80034e-05 0)
(0.0113119 -2.99423e-05 -6.58423e-23)
(0.0114002 -3.18783e-05 -6.14899e-23)
(0.0114933 -3.37937e-05 -1.14201e-22)
(0.0115912 -3.57006e-05 -5.25984e-23)
(0.0116938 -3.75795e-05 4.81332e-23)
(0.0118008 -3.9432e-05 0)
(0.0119121 -4.12335e-05 3.89001e-23)
(0.0120275 -4.29911e-05 -3.44081e-23)
(0.0121468 -4.46855e-05 -5.59898e-23)
(0.0122698 -4.63133e-05 9.66755e-23)
(0.0123961 -4.7856e-05 8.15943e-23)
(0.0125255 -4.93089e-05 0)
(0.0126577 -5.06624e-05 2.37042e-23)
(0.0127922 -5.18941e-05 -1.1279e-24)
(0.0129287 -5.29903e-05 0)
(0.0130668 -5.39398e-05 3.74002e-24)
(0.0132058 -5.47223e-05 1.00347e-24)
(0.0133453 -5.5329e-05 4.81095e-25)
(0.0134846 -5.56859e-05 -1.49097e-24)
(0.0136229 -5.58188e-05 6.92223e-23)
(0.0137597 -5.56638e-05 7.95219e-23)
(0.0138937 -5.5198e-05 -4.13366e-23)
(0.0140243 -5.43938e-05 4.93045e-23)
(0.0141502 -5.32005e-05 3.65794e-24)
(0.0142701 -5.15938e-05 -6.40479e-23)
(0.0143825 -4.95682e-05 6.299e-23)
(0.0144863 -4.70714e-05 0)
(0.0145801 -4.41121e-05 1.29803e-22)
(0.0146624 -4.06162e-05 0)
(0.0147315 -3.66916e-05 0)
(0.0147876 -3.23522e-05 0)
(0.014829 -2.75922e-05 -5.39991e-23)
(0.014857 -2.2561e-05 -4.03041e-25)
(0.0148711 -1.73504e-05 2.94463e-25)
(0.0148753 -1.20463e-05 -1.82145e-25)
(0.0148678 -7.70942e-06 -1.19686e-23)
(0.0148693 -3.58542e-06 -1.84345e-29)
(0.0158641 7.9981e-06 2.52271e-27)
(0.0158101 1.23305e-05 4.85389e-24)
(0.0157766 1.97942e-05 2.44113e-23)
(0.0157168 2.83319e-05 -7.5207e-23)
(0.0156555 3.5349e-05 4.71156e-25)
(0.0155729 4.27601e-05 1.35209e-22)
(0.0154756 4.93116e-05 -1.66614e-22)
(0.0153627 5.5439e-05 -2.0028e-22)
(0.0152352 6.09277e-05 2.31601e-22)
(0.015095 6.56812e-05 -2.5232e-25)
(0.0149442 6.97288e-05 0)
(0.0147846 7.29941e-05 3.08996e-22)
(0.0146187 7.55394e-05 1.04043e-23)
(0.0144485 7.73354e-05 3.60967e-22)
(0.0142756 7.84489e-05 4.09862e-22)
(0.0141019 7.8907e-05 2.69851e-23)
(0.0139289 7.87932e-05 -4.68594e-22)
(0.0137575 7.81449e-05 4.61049e-22)
(0.0135892 7.70063e-05 -4.78899e-22)
(0.0134249 7.54625e-05 4.94451e-22)
(0.0132654 7.35295e-05 -5.08488e-22)
(0.0131114 7.13042e-05 -2.6049e-22)
(0.0129633 6.88019e-05 5.48176e-22)
(0.0128215 6.6092e-05 3.18605e-25)
(0.0126865 6.32044e-05 -1.69819e-23)
(0.0125583 6.01942e-05 0)
(0.0124373 5.71028e-05 0)
(0.0123234 5.39388e-05 -2.81295e-22)
(0.0122166 5.07592e-05 -2.64772e-22)