/*--------------------------------*- C++ -*----------------------------------*\
| =========                 |                                                 |
| \\      /  F ield         | OpenFOAM: The Open Source CFD Toolbox           |
|  \\    /   O peration     | Version:  2306                                  |
|   \\  /    A nd           | Website:  www.openfoam.com                      |
|    \\/     M anipulation  |                                                 |
\*---------------------------------------------------------------------------*/
// * * * * * * * * * * * * * * * * * * * * * * * * * * * * * * * * * * * * * //
FoamFile
{
    version         2;
    format          ascii;
    class           volScalarField;
    location        "6237.56999999385971";
    object          epsilon;
}

dimensions      [ 0 2 -3 0 0 0 0 ];

internalField   nonuniform List<scalar> 
14751
(
7.00443e-06
6.89059e-06
6.815e-06
6.69599e-06
6.56066e-06
6.42409e-06
6.27514e-06
6.12426e-06
5.96372e-06
5.80342e-06
5.64074e-06
5.48046e-06
5.32237e-06
5.1684e-06
5.01932e-06
4.87498e-06
4.73924e-06
4.60768e-06
4.48494e-06
4.36703e-06
4.25815e-06
4.1561e-06
4.06126e-06
3.97353e-06
3.89257e-06
3.81828e-06
3.75033e-06
3.68851e-06
3.63264e-06
3.5823e-06
3.53739e-06
3.49761e-06
3.46275e-06
3.43261e-06
3.40692e-06
3.3856e-06
3.36858e-06
3.35545e-06
3.34617e-06
3.34049e-06
3.33834e-06
3.33968e-06
3.34439e-06
3.35242e-06
3.36364e-06
3.37807e-06
3.39565e-06
3.41639e-06
3.44018e-06
3.46716e-06
3.49721e-06
3.53039e-06
3.56665e-06
3.6061e-06
3.64879e-06
3.69473e-06
3.74396e-06
3.79661e-06
3.85266e-06
3.91218e-06
3.97519e-06
4.04181e-06
4.11208e-06
4.18607e-06
4.26369e-06
4.34518e-06
4.43034e-06
4.51944e-06
4.61242e-06
4.70911e-06
4.80951e-06
4.91356e-06
5.02114e-06
5.13206e-06
5.24608e-06
5.36318e-06
5.48287e-06
5.60473e-06
5.72827e-06
5.8535e-06
5.97906e-06
6.10449e-06
6.22896e-06
6.35243e-06
6.47319e-06
6.59015e-06
6.70173e-06
6.80514e-06
6.90311e-06
6.989e-06
7.06509e-06
7.12484e-06
7.17226e-06
7.19746e-06
7.21023e-06
7.19822e-06
7.16522e-06
7.11929e-06
7.07278e-06
5.18699e-06
5.10988e-06
5.04948e-06
4.9653e-06
4.87137e-06
4.77515e-06
4.67144e-06
4.56598e-06
4.45514e-06
4.34422e-06
4.23214e-06
4.12156e-06
4.01265e-06
3.90655e-06
3.80383e-06
3.70448e-06
3.61063e-06
3.51999e-06
3.43505e-06
3.3537e-06
3.27823e-06
3.20748e-06
3.14166e-06
3.08072e-06
3.02447e-06
2.97283e-06
2.9256e-06
2.88266e-06
2.84387e-06
2.80899e-06
2.77792e-06
2.75048e-06
2.72653e-06
2.70593e-06
2.68851e-06
2.6742e-06
2.66294e-06
2.65447e-06
2.64877e-06
2.64568e-06
2.64514e-06
2.64713e-06
2.65154e-06
2.65834e-06
2.66745e-06
2.67887e-06
2.69258e-06
2.70855e-06
2.72674e-06
2.7472e-06
2.76987e-06
2.79478e-06
2.82191e-06
2.8513e-06
2.88299e-06
2.91697e-06
2.95327e-06
2.99197e-06
3.03303e-06
3.07652e-06
3.12242e-06
3.17081e-06
3.22169e-06
3.2751e-06
3.33099e-06
3.38946e-06
3.45041e-06
3.51395e-06
3.58003e-06
3.64855e-06
3.71946e-06
3.79272e-06
3.86821e-06
3.94578e-06
4.02528e-06
4.10661e-06
4.18946e-06
4.27353e-06
4.35848e-06
4.44418e-06
4.52985e-06
4.61508e-06
4.69937e-06
4.78247e-06
4.86346e-06
4.94146e-06
5.0156e-06
5.0841e-06
5.14826e-06
5.2044e-06
5.25345e-06
5.29184e-06
5.32125e-06
5.33666e-06
5.34242e-06
5.3324e-06
5.30811e-06
5.27466e-06
5.23791e-06
4.05335e-06
3.99547e-06
3.94184e-06
3.875e-06
3.8019e-06
3.726e-06
3.6454e-06
3.56346e-06
3.47886e-06
3.39431e-06
3.30954e-06
3.22605e-06
3.1442e-06
3.06472e-06
2.98806e-06
2.91426e-06
2.8444e-06
2.77743e-06
2.71454e-06
2.6547e-06
2.59901e-06
2.5469e-06
2.49849e-06
2.45372e-06
2.41246e-06
2.37465e-06
2.34014e-06
2.30883e-06
2.28062e-06
2.25534e-06
2.23291e-06
2.2132e-06
2.19611e-06
2.18152e-06
2.16934e-06
2.15948e-06
2.15189e-06
2.14642e-06
2.14303e-06
2.14162e-06
2.14214e-06
2.14456e-06
2.14881e-06
2.15487e-06
2.16269e-06
2.17226e-06
2.18355e-06
2.19656e-06
2.21125e-06
2.22765e-06
2.24573e-06
2.26551e-06
2.28696e-06
2.31012e-06
2.335e-06
2.36161e-06
2.38996e-06
2.42008e-06
2.45198e-06
2.48568e-06
2.52118e-06
2.55852e-06
2.5977e-06
2.63873e-06
2.6816e-06
2.72634e-06
2.7729e-06
2.82133e-06
2.87159e-06
2.9236e-06
2.97734e-06
3.03275e-06
3.08974e-06
3.1482e-06
3.20801e-06
3.26907e-06
3.33116e-06
3.39406e-06
3.45751e-06
3.52134e-06
3.58507e-06
3.64834e-06
3.7108e-06
3.77213e-06
3.83178e-06
3.88905e-06
3.94343e-06
3.9937e-06
4.04033e-06
4.08125e-06
4.11667e-06
4.14457e-06
4.16541e-06
4.17665e-06
4.17983e-06
4.17199e-06
4.15328e-06
4.12668e-06
4.09495e-06
3.28082e-06
3.2339e-06
3.18463e-06
3.12801e-06
3.06721e-06
3.00359e-06
2.93702e-06
2.86957e-06
2.80113e-06
2.733e-06
2.66529e-06
2.59886e-06
2.5341e-06
2.47157e-06
2.41156e-06
2.35416e-06
2.29984e-06
2.2482e-06
2.19973e-06
2.15395e-06
2.1113e-06
2.07153e-06
2.03468e-06
2.00069e-06
1.96947e-06
1.94095e-06
1.91502e-06
1.89159e-06
1.87058e-06
1.85186e-06
1.83535e-06
1.82097e-06
1.80862e-06
1.79823e-06
1.78971e-06
1.78301e-06
1.77806e-06
1.77477e-06
1.77311e-06
1.773e-06
1.7744e-06
1.77729e-06
1.78161e-06
1.78734e-06
1.79447e-06
1.80297e-06
1.81283e-06
1.82404e-06
1.83658e-06
1.85046e-06
1.86566e-06
1.8822e-06
1.90007e-06
1.91927e-06
1.93983e-06
1.96174e-06
1.98502e-06
2.00968e-06
2.03573e-06
2.06318e-06
2.09203e-06
2.1223e-06
2.154e-06
2.18713e-06
2.22167e-06
2.25765e-06
2.29502e-06
2.33381e-06
2.37397e-06
2.41547e-06
2.45827e-06
2.50231e-06
2.54753e-06
2.59384e-06
2.64113e-06
2.6893e-06
2.7382e-06
2.78763e-06
2.83741e-06
2.88734e-06
2.93711e-06
2.98639e-06
3.03493e-06
3.08237e-06
3.12837e-06
3.1724e-06
3.21407e-06
3.2526e-06
3.28793e-06
3.31893e-06
3.34547e-06
3.36646e-06
3.38175e-06
3.39e-06
3.39137e-06
3.38443e-06
3.36878e-06
3.34583e-06
3.31702e-06
2.71883e-06
2.67887e-06
2.63337e-06
2.58367e-06
2.53119e-06
2.47624e-06
2.41948e-06
2.36234e-06
2.30518e-06
2.24861e-06
2.19285e-06
2.13843e-06
2.08571e-06
2.03513e-06
1.98686e-06
1.94103e-06
1.89773e-06
1.85694e-06
1.81872e-06
1.78291e-06
1.74958e-06
1.71862e-06
1.69004e-06
1.66379e-06
1.63979e-06
1.61797e-06
1.59825e-06
1.58054e-06
1.56475e-06
1.55082e-06
1.53865e-06
1.52819e-06
1.51935e-06
1.51208e-06
1.50631e-06
1.50199e-06
1.49907e-06
1.49748e-06
1.4972e-06
1.49816e-06
1.50034e-06
1.5037e-06
1.50822e-06
1.51388e-06
1.52067e-06
1.52857e-06
1.53757e-06
1.54766e-06
1.55883e-06
1.57108e-06
1.58441e-06
1.59881e-06
1.6143e-06
1.63087e-06
1.64852e-06
1.66727e-06
1.68712e-06
1.70807e-06
1.73013e-06
1.75332e-06
1.77763e-06
1.80306e-06
1.82962e-06
1.85731e-06
1.88611e-06
1.91602e-06
1.94703e-06
1.97913e-06
2.01228e-06
2.04646e-06
2.08162e-06
2.11772e-06
2.1547e-06
2.19247e-06
2.23095e-06
2.27004e-06
2.30961e-06
2.3495e-06
2.38956e-06
2.42959e-06
2.46937e-06
2.50863e-06
2.54712e-06
2.58454e-06
2.62064e-06
2.65503e-06
2.68736e-06
2.71721e-06
2.74426e-06
2.76794e-06
2.78794e-06
2.80365e-06
2.81468e-06
2.82027e-06
2.82004e-06
2.81316e-06
2.79915e-06
2.77829e-06
2.75154e-06
2.29025e-06
2.25521e-06
2.21342e-06
2.16895e-06
2.12293e-06
2.07478e-06
2.02562e-06
1.97648e-06
1.92799e-06
1.88029e-06
1.83364e-06
1.78838e-06
1.74479e-06
1.70326e-06
1.66385e-06
1.62673e-06
1.59176e-06
1.5591e-06
1.5286e-06
1.50026e-06
1.47393e-06
1.44959e-06
1.42724e-06
1.40681e-06
1.38826e-06
1.3715e-06
1.35646e-06
1.34307e-06
1.33125e-06
1.32095e-06
1.31209e-06
1.30462e-06
1.29848e-06
1.29361e-06
1.28996e-06
1.2875e-06
1.28617e-06
1.28594e-06
1.28676e-06
1.28861e-06
1.29145e-06
1.29525e-06
1.30001e-06
1.30571e-06
1.31234e-06
1.31989e-06
1.32835e-06
1.3377e-06
1.34794e-06
1.35907e-06
1.37109e-06
1.384e-06
1.39779e-06
1.41248e-06
1.42806e-06
1.44453e-06
1.46189e-06
1.48015e-06
1.49932e-06
1.51938e-06
1.54035e-06
1.56223e-06
1.585e-06
1.60866e-06
1.6332e-06
1.6586e-06
1.68486e-06
1.71196e-06
1.73986e-06
1.76853e-06
1.79794e-06
1.82804e-06
1.85877e-06
1.89006e-06
1.92184e-06
1.95399e-06
1.98642e-06
2.01899e-06
2.05156e-06
2.08396e-06
2.11599e-06
2.14745e-06
2.17811e-06
2.20773e-06
2.23604e-06
2.26288e-06
2.28794e-06
2.311e-06
2.33161e-06
2.34952e-06
2.36436e-06
2.3758e-06
2.38338e-06
2.38664e-06
2.38499e-06
2.37783e-06
2.36478e-06
2.34534e-06
2.32036e-06
1.95206e-06
1.92086e-06
1.88278e-06
1.84278e-06
1.80217e-06
1.75979e-06
1.71695e-06
1.67438e-06
1.63286e-06
1.59237e-06
1.55306e-06
1.51514e-06
1.47885e-06
1.4445e-06
1.41209e-06
1.3818e-06
1.35337e-06
1.32704e-06
1.30257e-06
1.28e-06
1.25912e-06
1.23992e-06
1.2224e-06
1.2065e-06
1.19216e-06
1.17932e-06
1.16791e-06
1.15787e-06
1.14914e-06
1.14166e-06
1.13537e-06
1.13023e-06
1.12619e-06
1.1232e-06
1.12122e-06
1.12022e-06
1.12015e-06
1.121e-06
1.12271e-06
1.12527e-06
1.12865e-06
1.13283e-06
1.13781e-06
1.14359e-06
1.15013e-06
1.15745e-06
1.16551e-06
1.17432e-06
1.18388e-06
1.19418e-06
1.20521e-06
1.21699e-06
1.2295e-06
1.24275e-06
1.25673e-06
1.27144e-06
1.28689e-06
1.30306e-06
1.31997e-06
1.33761e-06
1.35597e-06
1.37505e-06
1.39484e-06
1.41532e-06
1.4365e-06
1.45834e-06
1.48082e-06
1.50394e-06
1.52765e-06
1.55193e-06
1.57674e-06
1.60203e-06
1.62774e-06
1.65381e-06
1.68018e-06
1.70673e-06
1.73338e-06
1.76002e-06
1.78651e-06
1.81269e-06
1.83841e-06
1.8635e-06
1.88774e-06
1.911e-06
1.93306e-06
1.95383e-06
1.97305e-06
1.99062e-06
2.00607e-06
2.01931e-06
2.03001e-06
2.03798e-06
2.04279e-06
2.04408e-06
2.04127e-06
2.03379e-06
2.02145e-06
2.00322e-06
1.97994e-06
1.67851e-06
1.65056e-06
1.61621e-06
1.58026e-06
1.54439e-06
1.50711e-06
1.46972e-06
1.4328e-06
1.39713e-06
1.36262e-06
1.32936e-06
1.29752e-06
1.26724e-06
1.23876e-06
1.21203e-06
1.18724e-06
1.16407e-06
1.14279e-06
1.12313e-06
1.10513e-06
1.08858e-06
1.07345e-06
1.05974e-06
1.0474e-06
1.03639e-06
1.02664e-06
1.01809e-06
1.01069e-06
1.00438e-06
9.99121e-07
9.9486e-07
9.91553e-07
9.89163e-07
9.87649e-07
9.86982e-07
9.8713e-07
9.88058e-07
9.89742e-07
9.92154e-07
9.95271e-07
9.99077e-07
1.00356e-06
1.00873e-06
1.01455e-06
1.02103e-06
1.02815e-06
1.0359e-06
1.04427e-06
1.05328e-06
1.06289e-06
1.07313e-06
1.08398e-06
1.09544e-06
1.10752e-06
1.12019e-06
1.13346e-06
1.14733e-06
1.16179e-06
1.17684e-06
1.19247e-06
1.20868e-06
1.22545e-06
1.24277e-06
1.26062e-06
1.27899e-06
1.29785e-06
1.3172e-06
1.337e-06
1.35721e-06
1.37781e-06
1.39877e-06
1.42003e-06
1.44153e-06
1.46323e-06
1.48505e-06
1.50691e-06
1.52871e-06
1.55036e-06
1.57173e-06
1.5927e-06
1.61311e-06
1.63286e-06
1.6518e-06
1.66984e-06
1.68676e-06
1.70257e-06
1.71701e-06
1.73011e-06
1.74138e-06
1.75087e-06
1.75825e-06
1.76345e-06
1.76606e-06
1.7658e-06
1.76214e-06
1.75447e-06
1.74281e-06
1.7258e-06
1.70427e-06
1.45321e-06
1.42814e-06
1.39745e-06
1.3653e-06
1.33372e-06
1.30101e-06
1.26845e-06
1.23645e-06
1.20582e-06
1.1764e-06
1.14825e-06
1.12148e-06
1.09618e-06
1.07256e-06
1.05054e-06
1.03024e-06
1.01137e-06
9.94185e-07
9.78399e-07
9.6408e-07
9.50997e-07
9.39125e-07
9.2847e-07
9.1898e-07
9.10613e-07
9.03317e-07
8.97039e-07
8.91733e-07
8.87345e-07
8.83841e-07
8.81178e-07
8.79318e-07
8.78228e-07
8.77877e-07
8.78237e-07
8.79282e-07
8.80982e-07
8.83316e-07
8.86262e-07
8.89803e-07
8.93935e-07
8.98643e-07
9.03921e-07
9.09757e-07
9.16146e-07
9.23073e-07
9.30534e-07
9.38518e-07
9.47027e-07
9.5605e-07
9.65587e-07
9.75634e-07
9.86187e-07
9.97239e-07
1.00878e-06
1.02081e-06
1.03332e-06
1.0463e-06
1.05974e-06
1.07364e-06
1.08798e-06
1.10274e-06
1.11792e-06
1.13349e-06
1.14944e-06
1.16573e-06
1.18236e-06
1.19928e-06
1.21647e-06
1.23389e-06
1.25152e-06
1.26929e-06
1.28717e-06
1.3051e-06
1.323e-06
1.34082e-06
1.35845e-06
1.37582e-06
1.39281e-06
1.40932e-06
1.42521e-06
1.44051e-06
1.45504e-06
1.46874e-06
1.48142e-06
1.49316e-06
1.50371e-06
1.51317e-06
1.52111e-06
1.5276e-06
1.53239e-06
1.53543e-06
1.53637e-06
1.53497e-06
1.53077e-06
1.52313e-06
1.51223e-06
1.49653e-06
1.47681e-06
1.26515e-06
1.24275e-06
1.2156e-06
1.18705e-06
1.15936e-06
1.13079e-06
1.10252e-06
1.07487e-06
1.0486e-06
1.02357e-06
9.99763e-07
9.77281e-07
9.56145e-07
9.36569e-07
9.1845e-07
9.01867e-07
8.86541e-07
8.72697e-07
8.6007e-07
8.48728e-07
8.3845e-07
8.29208e-07
8.21009e-07
8.13805e-07
8.07559e-07
8.02225e-07
7.97759e-07
7.94118e-07
7.91256e-07
7.89143e-07
7.87742e-07
7.87022e-07
7.86954e-07
7.87509e-07
7.88667e-07
7.90403e-07
7.9269e-07
7.95513e-07
7.98857e-07
8.02712e-07
8.07069e-07
8.11914e-07
8.17241e-07
8.23039e-07
8.29304e-07
8.36022e-07
8.43188e-07
8.5079e-07
8.58831e-07
8.67297e-07
8.76189e-07
8.85497e-07
8.9522e-07
9.05346e-07
9.15866e-07
9.26769e-07
9.3805e-07
9.49693e-07
9.61691e-07
9.74029e-07
9.86697e-07
9.99672e-07
1.01294e-06
1.02647e-06
1.04025e-06
1.05426e-06
1.06846e-06
1.08283e-06
1.09734e-06
1.11195e-06
1.12663e-06
1.14134e-06
1.15603e-06
1.17064e-06
1.18513e-06
1.19941e-06
1.21342e-06
1.22708e-06
1.24028e-06
1.25296e-06
1.26508e-06
1.27664e-06
1.28748e-06
1.29759e-06
1.3068e-06
1.31521e-06
1.32263e-06
1.3292e-06
1.3345e-06
1.33867e-06
1.34147e-06
1.34291e-06
1.34266e-06
1.34051e-06
1.33608e-06
1.3287e-06
1.31868e-06
1.30439e-06
1.28656e-06
1.10663e-06
1.08671e-06
1.06293e-06
1.03778e-06
1.01363e-06
9.88805e-07
9.64355e-07
9.4055e-07
9.18083e-07
8.96826e-07
8.76743e-07
8.57897e-07
8.40277e-07
8.24079e-07
8.09177e-07
7.95673e-07
7.83291e-07
7.72191e-07
7.62151e-07
7.53229e-07
7.45229e-07
7.38117e-07
7.319e-07
7.26537e-07
7.21995e-07
7.18234e-07
7.15213e-07
7.12899e-07
7.11246e-07
7.10233e-07
7.09826e-07
7.09998e-07
7.10724e-07
7.1198e-07
7.13745e-07
7.16001e-07
7.18723e-07
7.21906e-07
7.25535e-07
7.29599e-07
7.3409e-07
7.38994e-07
7.44304e-07
7.5001e-07
7.5611e-07
7.62587e-07
7.69438e-07
7.76651e-07
7.84225e-07
7.92147e-07
8.00414e-07
8.09018e-07
8.17952e-07
8.27204e-07
8.36763e-07
8.46615e-07
8.56754e-07
8.67158e-07
8.7782e-07
8.88721e-07
8.9985e-07
9.11181e-07
9.22695e-07
9.34368e-07
9.4618e-07
9.58102e-07
9.70111e-07
9.82176e-07
9.94265e-07
1.00635e-06
1.0184e-06
1.03037e-06
1.04222e-06
1.0539e-06
1.06537e-06
1.07656e-06
1.0874e-06
1.09783e-06
1.10777e-06
1.11725e-06
1.1262e-06
1.13463e-06
1.14243e-06
1.1496e-06
1.156e-06
1.16175e-06
1.16669e-06
1.171e-06
1.1743e-06
1.17672e-06
1.17808e-06
1.17838e-06
1.17737e-06
1.17482e-06
1.17043e-06
1.16353e-06
1.1545e-06
1.14171e-06
1.1258e-06
9.72011e-07
9.54446e-07
9.33814e-07
9.11847e-07
8.90908e-07
8.69435e-07
8.48382e-07
8.27962e-07
8.08808e-07
7.90808e-07
7.73907e-07
7.58146e-07
7.43494e-07
7.30126e-07
7.17908e-07
7.06951e-07
6.96983e-07
6.88146e-07
6.80229e-07
6.73281e-07
6.67132e-07
6.61748e-07
6.57135e-07
6.53256e-07
6.50082e-07
6.47578e-07
6.4571e-07
6.44448e-07
6.43751e-07
6.43601e-07
6.43969e-07
6.44831e-07
6.46165e-07
6.4795e-07
6.50167e-07
6.52801e-07
6.5584e-07
6.59272e-07
6.63084e-07
6.67264e-07
6.71806e-07
6.76694e-07
6.81925e-07
6.87486e-07
6.93374e-07
6.99575e-07
7.06084e-07
7.12886e-07
7.19982e-07
7.27356e-07
7.35003e-07
7.42914e-07
7.5108e-07
7.59487e-07
7.68122e-07
7.76969e-07
7.86018e-07
7.95249e-07
8.04649e-07
8.14199e-07
8.23884e-07
8.33679e-07
8.43564e-07
8.53511e-07
8.63503e-07
8.73509e-07
8.83506e-07
8.93467e-07
9.03359e-07
9.1316e-07
9.22836e-07
9.32354e-07
9.41675e-07
9.50764e-07
9.59575e-07
9.68056e-07
9.76138e-07
9.83777e-07
9.90995e-07
9.97786e-07
1.00409e-06
1.00996e-06
1.01529e-06
1.0201e-06
1.02428e-06
1.02795e-06
1.03099e-06
1.0336e-06
1.03542e-06
1.0366e-06
1.03697e-06
1.03656e-06
1.03514e-06
1.0325e-06
1.02838e-06
1.02215e-06
1.01419e-06
1.00295e-06
9.88971e-07
8.57053e-07
8.41707e-07
8.23976e-07
8.04953e-07
7.86892e-07
7.68411e-07
7.5036e-07
7.32912e-07
7.16635e-07
7.01437e-07
6.87254e-07
6.74109e-07
6.61962e-07
6.50964e-07
6.40987e-07
6.32137e-07
6.24146e-07
6.1716e-07
6.10992e-07
6.05655e-07
6.0101e-07
5.97027e-07
5.93709e-07
5.91024e-07
5.88946e-07
5.87446e-07
5.86491e-07
5.86057e-07
5.86109e-07
5.86628e-07
5.87592e-07
5.88978e-07
5.90764e-07
5.92936e-07
5.95481e-07
5.98385e-07
6.01633e-07
6.05215e-07
6.09118e-07
6.13332e-07
6.1785e-07
6.22656e-07
6.27747e-07
6.3311e-07
6.38742e-07
6.44629e-07
6.50762e-07
6.57129e-07
6.63727e-07
6.70539e-07
6.7756e-07
6.84778e-07
6.92182e-07
6.99757e-07
7.07489e-07
7.15359e-07
7.23357e-07
7.31459e-07
7.39652e-07
7.47915e-07
7.56232e-07
7.64578e-07
7.72932e-07
7.81267e-07
7.89565e-07
7.97798e-07
8.05944e-07
8.13977e-07
8.21869e-07
8.296e-07
8.37143e-07
8.44469e-07
8.51546e-07
8.58346e-07
8.64832e-07
8.7096e-07
8.76666e-07
8.8198e-07
8.86929e-07
8.91504e-07
8.95666e-07
8.99469e-07
9.0284e-07
9.05812e-07
9.08283e-07
9.104e-07
9.1205e-07
9.13429e-07
9.14235e-07
9.14596e-07
9.14374e-07
9.13592e-07
9.12051e-07
9.09558e-07
9.05894e-07
9.00455e-07
8.9363e-07
8.83948e-07
8.71854e-07
7.58451e-07
7.45195e-07
7.30096e-07
7.13757e-07
6.98258e-07
6.82423e-07
6.67007e-07
6.52153e-07
6.38367e-07
6.25572e-07
6.13704e-07
6.02772e-07
5.92734e-07
5.8372e-07
5.7561e-07
5.68501e-07
5.62143e-07
5.5667e-07
5.51913e-07
5.47887e-07
5.44461e-07
5.41612e-07
5.39338e-07
5.3761e-07
5.36406e-07
5.35698e-07
5.35462e-07
5.35673e-07
5.36301e-07
5.3733e-07
5.3874e-07
5.40511e-07
5.42629e-07
5.45077e-07
5.47843e-07
5.50915e-07
5.54278e-07
5.57923e-07
5.61838e-07
5.66012e-07
5.70438e-07
5.75102e-07
5.79997e-07
5.85114e-07
5.90445e-07
5.95977e-07
6.01702e-07
6.07605e-07
6.13682e-07
6.19915e-07
6.26297e-07
6.32815e-07
6.39457e-07
6.46206e-07
6.53048e-07
6.59961e-07
6.66934e-07
6.73943e-07
6.80973e-07
6.88004e-07
6.95018e-07
7.01991e-07
7.08904e-07
7.15729e-07
7.22451e-07
7.29043e-07
7.35487e-07
7.4176e-07
7.47838e-07
7.53707e-07
7.59343e-07
7.64727e-07
7.69831e-07
7.74638e-07
7.79117e-07
7.83237e-07
7.86955e-07
7.90366e-07
7.93467e-07
7.96262e-07
7.98727e-07
8.00924e-07
8.02799e-07
8.04391e-07
8.05618e-07
8.06622e-07
8.07313e-07
8.07878e-07
8.08049e-07
8.07941e-07
8.07437e-07
8.06557e-07
8.05127e-07
8.02966e-07
7.99883e-07
7.95323e-07
7.8964e-07
7.81481e-07
7.71193e-07
6.73569e-07
6.62268e-07
6.49525e-07
6.35602e-07
6.22363e-07
6.08849e-07
5.95733e-07
5.83131e-07
5.71489e-07
5.60748e-07
5.50846e-07
5.4178e-07
5.33514e-07
5.26155e-07
5.19597e-07
5.13924e-07
5.08909e-07
5.04674e-07
5.01063e-07
4.98095e-07
4.95652e-07
4.93709e-07
4.92264e-07
4.91293e-07
4.90776e-07
4.90689e-07
4.91009e-07
4.91713e-07
4.92778e-07
4.94187e-07
4.95924e-07
4.9797e-07
5.00313e-07
5.02936e-07
5.0583e-07
5.08982e-07
5.12379e-07
5.16011e-07
5.19867e-07
5.23935e-07
5.28209e-07
5.32674e-07
5.37323e-07
5.42145e-07
5.47134e-07
5.52275e-07
5.57558e-07
5.62969e-07
5.685e-07
5.74136e-07
5.79865e-07
5.85674e-07
5.91551e-07
5.97478e-07
6.03438e-07
6.09411e-07
6.15384e-07
6.21333e-07
6.27244e-07
6.33094e-07
6.38869e-07
6.44544e-07
6.50103e-07
6.5552e-07
6.60781e-07
6.65865e-07
6.70756e-07
6.75435e-07
6.79885e-07
6.84096e-07
6.88051e-07
6.91739e-07
6.95139e-07
6.98243e-07
7.01028e-07
7.03469e-07
7.05597e-07
7.07485e-07
7.09129e-07
7.10544e-07
7.11719e-07
7.1272e-07
7.13508e-07
7.14124e-07
7.14501e-07
7.14772e-07
7.14866e-07
7.14953e-07
7.14796e-07
7.14499e-07
7.13956e-07
7.13185e-07
7.12033e-07
7.10329e-07
7.07905e-07
7.04259e-07
6.99693e-07
6.92985e-07
6.84393e-07
6.00269e-07
5.90779e-07
5.80115e-07
5.68337e-07
5.57077e-07
5.45587e-07
5.34465e-07
5.23806e-07
5.14003e-07
5.05009e-07
4.96769e-07
4.89273e-07
4.8249e-07
4.76508e-07
4.71236e-07
4.66743e-07
4.62829e-07
4.596e-07
4.56918e-07
4.54802e-07
4.53145e-07
4.51921e-07
4.51131e-07
4.50752e-07
4.50767e-07
4.51156e-07
4.51895e-07
4.52967e-07
4.54349e-07
4.56027e-07
4.57985e-07
4.60208e-07
4.62683e-07
4.65396e-07
4.68335e-07
4.71491e-07
4.7485e-07
4.78401e-07
4.82135e-07
4.8604e-07
4.90107e-07
4.94323e-07
4.9868e-07
5.03166e-07
5.07774e-07
5.12488e-07
5.17299e-07
5.22191e-07
5.27155e-07
5.32175e-07
5.3724e-07
5.42334e-07
5.47444e-07
5.52553e-07
5.57644e-07
5.62696e-07
5.67696e-07
5.72621e-07
5.77456e-07
5.82182e-07
5.86785e-07
5.91243e-07
5.9554e-07
5.99655e-07
6.03579e-07
6.07292e-07
6.10784e-07
6.14042e-07
6.17053e-07
6.19815e-07
6.22318e-07
6.24556e-07
6.26519e-07
6.28205e-07
6.29602e-07
6.30709e-07
6.316e-07
6.32316e-07
6.32862e-07
6.3326e-07
6.33509e-07
6.33675e-07
6.3373e-07
6.33713e-07
6.3357e-07
6.33421e-07
6.33209e-07
6.33084e-07
6.3284e-07
6.32562e-07
6.3216e-07
6.31644e-07
6.3088e-07
6.29707e-07
6.27975e-07
6.25235e-07
6.21729e-07
6.16372e-07
6.09339e-07
5.36787e-07
5.28947e-07
5.20105e-07
5.10209e-07
5.00667e-07
4.9093e-07
4.81526e-07
4.72533e-07
4.64299e-07
4.56785e-07
4.49944e-07
4.43763e-07
4.38216e-07
4.33376e-07
4.29164e-07
4.25636e-07
4.2262e-07
4.20204e-07
4.18269e-07
4.16831e-07
4.15796e-07
4.15137e-07
4.14856e-07
4.14932e-07
4.15349e-07
4.16091e-07
4.17135e-07
4.18467e-07
4.20065e-07
4.21917e-07
4.24007e-07
4.26322e-07
4.28849e-07
4.31576e-07
4.34491e-07
4.37583e-07
4.40841e-07
4.44253e-07
4.4781e-07
4.51499e-07
4.55311e-07
4.59233e-07
4.63256e-07
4.67368e-07
4.71561e-07
4.75819e-07
4.80131e-07
4.84482e-07
4.88862e-07
4.93253e-07
4.97645e-07
5.02021e-07
5.06369e-07
5.10671e-07
5.1491e-07
5.19066e-07
5.23127e-07
5.27071e-07
5.30885e-07
5.34551e-07
5.38058e-07
5.41386e-07
5.44524e-07
5.47454e-07
5.50171e-07
5.5266e-07
5.54916e-07
5.56932e-07
5.58702e-07
5.60229e-07
5.6151e-07
5.62547e-07
5.63338e-07
5.63887e-07
5.64187e-07
5.64301e-07
5.64273e-07
5.64138e-07
5.63907e-07
5.63609e-07
5.63248e-07
5.62887e-07
5.62505e-07
5.62137e-07
5.61739e-07
5.61417e-07
5.61124e-07
5.60988e-07
5.6083e-07
5.60721e-07
5.60578e-07
5.60409e-07
5.60093e-07
5.59481e-07
5.58436e-07
5.56558e-07
5.54034e-07
5.49907e-07
5.44279e-07
4.81651e-07
4.75309e-07
4.68027e-07
4.59764e-07
4.51706e-07
4.43476e-07
4.35544e-07
4.27975e-07
4.21072e-07
4.14805e-07
4.09138e-07
4.04054e-07
3.99532e-07
3.95633e-07
3.92289e-07
3.89546e-07
3.87256e-07
3.85491e-07
3.84151e-07
3.83246e-07
3.82694e-07
3.8247e-07
3.82574e-07
3.82989e-07
3.837e-07
3.84692e-07
3.85945e-07
3.87445e-07
3.89172e-07
3.91116e-07
3.93261e-07
3.95595e-07
3.98106e-07
4.00781e-07
4.0361e-07
4.06581e-07
4.09683e-07
4.12905e-07
4.16236e-07
4.19663e-07
4.23179e-07
4.26768e-07
4.30422e-07
4.34128e-07
4.37878e-07
4.41656e-07
4.45449e-07
4.49242e-07
4.53026e-07
4.56783e-07
4.605e-07
4.64164e-07
4.67761e-07
4.71275e-07
4.74688e-07
4.77984e-07
4.8115e-07
4.84167e-07
4.87024e-07
4.89706e-07
4.92204e-07
4.94504e-07
4.96596e-07
4.98469e-07
5.00121e-07
5.01543e-07
5.02736e-07
5.03698e-07
5.04429e-07
5.04938e-07
5.05229e-07
5.05311e-07
5.05187e-07
5.04871e-07
5.04371e-07
5.03785e-07
5.03122e-07
5.02418e-07
5.01691e-07
5.00972e-07
5.00265e-07
4.99628e-07
4.99048e-07
4.9855e-07
4.98101e-07
4.97789e-07
4.97577e-07
4.97571e-07
4.97617e-07
4.97769e-07
4.97956e-07
4.98178e-07
4.98331e-07
4.98273e-07
4.9788e-07
4.96798e-07
4.95159e-07
4.92128e-07
4.87747e-07
4.33626e-07
4.28618e-07
4.22662e-07
4.158e-07
4.09016e-07
4.02077e-07
3.95398e-07
3.89038e-07
3.83258e-07
3.78038e-07
3.7335e-07
3.69174e-07
3.65498e-07
3.62369e-07
3.59731e-07
3.5762e-07
3.5591e-07
3.5466e-07
3.53785e-07
3.53292e-07
3.53107e-07
3.53208e-07
3.53594e-07
3.5425e-07
3.55162e-07
3.56316e-07
3.57695e-07
3.59285e-07
3.61068e-07
3.63033e-07
3.65167e-07
3.67458e-07
3.69893e-07
3.7246e-07
3.7515e-07
3.7795e-07
3.80849e-07
3.83836e-07
3.869e-07
3.90028e-07
3.93212e-07
3.96437e-07
3.99694e-07
4.02969e-07
4.06255e-07
4.09534e-07
4.12796e-07
4.16024e-07
4.19209e-07
4.22333e-07
4.25385e-07
4.28352e-07
4.3122e-07
4.33975e-07
4.36601e-07
4.39083e-07
4.41411e-07
4.43568e-07
4.45545e-07
4.47333e-07
4.48924e-07
4.50308e-07
4.51481e-07
4.52437e-07
4.53177e-07
4.53699e-07
4.54007e-07
4.54107e-07
4.54004e-07
4.53711e-07
4.5324e-07
4.52604e-07
4.51811e-07
4.50879e-07
4.49859e-07
4.48823e-07
4.47772e-07
4.46743e-07
4.45754e-07
4.44836e-07
4.43994e-07
4.4328e-07
4.4268e-07
4.42217e-07
4.41862e-07
4.41687e-07
4.41663e-07
4.41875e-07
4.42191e-07
4.42654e-07
4.43199e-07
4.43822e-07
4.4443e-07
4.44894e-07
4.45097e-07
4.44726e-07
4.43867e-07
4.41796e-07
4.38501e-07
3.91664e-07
3.87821e-07
3.82982e-07
3.77313e-07
3.71617e-07
3.65777e-07
3.60161e-07
3.5482e-07
3.49984e-07
3.45638e-07
3.4176e-07
3.38333e-07
3.35348e-07
3.32844e-07
3.30775e-07
3.29167e-07
3.27914e-07
3.27064e-07
3.26545e-07
3.26359e-07
3.26443e-07
3.26776e-07
3.27357e-07
3.28171e-07
3.29205e-07
3.30447e-07
3.31881e-07
3.33495e-07
3.35271e-07
3.37198e-07
3.39264e-07
3.41458e-07
3.43766e-07
3.46178e-07
3.48683e-07
3.5127e-07
3.53926e-07
3.56642e-07
3.59406e-07
3.62205e-07
3.6503e-07
3.67866e-07
3.70705e-07
3.73534e-07
3.76342e-07
3.79116e-07
3.81842e-07
3.84507e-07
3.871e-07
3.89605e-07
3.92012e-07
3.94308e-07
3.96482e-07
3.9852e-07
4.00411e-07
4.02139e-07
4.03699e-07
4.05077e-07
4.06266e-07
4.07261e-07
4.08059e-07
4.08654e-07
4.09046e-07
4.09233e-07
4.09221e-07
4.09014e-07
4.08621e-07
4.08052e-07
4.07315e-07
4.06431e-07
4.05413e-07
4.0428e-07
4.03044e-07
4.01728e-07
4.00422e-07
3.99149e-07
3.97915e-07
3.96756e-07
3.95691e-07
3.94747e-07
3.93929e-07
3.93279e-07
3.92787e-07
3.92468e-07
3.923e-07
3.92339e-07
3.92564e-07
3.93039e-07
3.93654e-07
3.94439e-07
3.95338e-07
3.96343e-07
3.97372e-07
3.98306e-07
3.99035e-07
3.99284e-07
3.99097e-07
3.9785e-07
3.95488e-07
3.54878e-07
3.5203e-07
3.4813e-07
3.43466e-07
3.38695e-07
3.33786e-07
3.29066e-07
3.24581e-07
3.20533e-07
3.1691e-07
3.13699e-07
3.10884e-07
3.08459e-07
3.06457e-07
3.04838e-07
3.03624e-07
3.02723e-07
3.02177e-07
3.0192e-07
3.01955e-07
3.02225e-07
3.02711e-07
3.03412e-07
3.04313e-07
3.05403e-07
3.06671e-07
3.08101e-07
3.09682e-07
3.11396e-07
3.13235e-07
3.15186e-07
3.17238e-07
3.19377e-07
3.21594e-07
3.23878e-07
3.26217e-07
3.286e-07
3.31016e-07
3.33454e-07
3.35901e-07
3.38349e-07
3.40782e-07
3.43192e-07
3.45566e-07
3.47896e-07
3.50165e-07
3.52364e-07
3.54478e-07
3.56498e-07
3.5841e-07
3.60204e-07
3.61869e-07
3.63397e-07
3.64775e-07
3.65995e-07
3.67044e-07
3.6792e-07
3.68612e-07
3.69118e-07
3.69434e-07
3.69563e-07
3.69504e-07
3.69259e-07
3.68832e-07
3.68233e-07
3.67469e-07
3.66554e-07
3.655e-07
3.64321e-07
3.6304e-07
3.61672e-07
3.6024e-07
3.58759e-07
3.57271e-07
3.55855e-07
3.54515e-07
3.53259e-07
3.52121e-07
3.51117e-07
3.50269e-07
3.49583e-07
3.49091e-07
3.48786e-07
3.48677e-07
3.48745e-07
3.49036e-07
3.4953e-07
3.50279e-07
3.51191e-07
3.52285e-07
3.53512e-07
3.54861e-07
3.56261e-07
3.57601e-07
3.5878e-07
3.59555e-07
3.59934e-07
3.59381e-07
3.57807e-07
3.22516e-07
3.20498e-07
3.17382e-07
3.1356e-07
3.0957e-07
3.05446e-07
3.01477e-07
2.97706e-07
2.9431e-07
2.91282e-07
2.88616e-07
2.86295e-07
2.84319e-07
2.82713e-07
2.81445e-07
2.80532e-07
2.79896e-07
2.79569e-07
2.79497e-07
2.79679e-07
2.80065e-07
2.80639e-07
2.81396e-07
2.82326e-07
2.83416e-07
2.84656e-07
2.86032e-07
2.87533e-07
2.89143e-07
2.90852e-07
2.92648e-07
2.94521e-07
2.96458e-07
2.98449e-07
3.00483e-07
3.02549e-07
3.04636e-07
3.06733e-07
3.08828e-07
3.10911e-07
3.12972e-07
3.14997e-07
3.16977e-07
3.189e-07
3.20758e-07
3.22538e-07
3.24228e-07
3.25817e-07
3.27295e-07
3.28652e-07
3.29879e-07
3.30967e-07
3.31909e-07
3.32697e-07
3.33324e-07
3.33782e-07
3.34069e-07
3.3418e-07
3.34116e-07
3.33878e-07
3.3347e-07
3.32895e-07
3.32161e-07
3.31273e-07
3.30247e-07
3.29091e-07
3.27822e-07
3.26456e-07
3.25009e-07
3.23503e-07
3.21958e-07
3.20394e-07
3.18827e-07
3.17338e-07
3.15949e-07
3.14669e-07
3.13509e-07
3.12495e-07
3.11643e-07
3.1097e-07
3.1048e-07
3.10199e-07
3.1012e-07
3.10248e-07
3.10568e-07
3.11114e-07
3.11873e-07
3.12883e-07
3.14066e-07
3.15436e-07
3.1695e-07
3.18594e-07
3.20306e-07
3.21986e-07
3.23537e-07
3.24744e-07
3.25589e-07
3.2561e-07
3.24693e-07
2.93938e-07
2.92595e-07
2.90132e-07
2.87009e-07
2.83677e-07
2.80212e-07
2.76867e-07
2.73688e-07
2.70828e-07
2.68285e-07
2.66057e-07
2.64131e-07
2.62508e-07
2.6121e-07
2.60209e-07
2.59518e-07
2.59072e-07
2.58896e-07
2.58943e-07
2.5921e-07
2.59654e-07
2.60259e-07
2.61021e-07
2.6193e-07
2.62974e-07
2.64144e-07
2.65425e-07
2.66808e-07
2.68277e-07
2.69823e-07
2.71434e-07
2.731e-07
2.7481e-07
2.76552e-07
2.78317e-07
2.80093e-07
2.8187e-07
2.83638e-07
2.85385e-07
2.871e-07
2.88775e-07
2.90397e-07
2.91957e-07
2.93444e-07
2.94852e-07
2.96166e-07
2.9738e-07
2.9848e-07
2.99462e-07
3.00315e-07
3.01033e-07
3.01609e-07
3.0204e-07
3.02319e-07
3.02441e-07
3.02404e-07
3.02208e-07
3.0185e-07
3.01336e-07
3.00669e-07
2.99856e-07
2.98905e-07
2.97824e-07
2.96624e-07
2.9532e-07
2.93924e-07
2.92454e-07
2.90927e-07
2.89359e-07
2.87775e-07
2.86192e-07
2.84632e-07
2.83119e-07
2.81732e-07
2.80467e-07
2.79335e-07
2.78344e-07
2.77519e-07
2.7687e-07
2.76413e-07
2.76148e-07
2.76096e-07
2.76251e-07
2.76615e-07
2.77176e-07
2.7796e-07
2.78959e-07
2.80198e-07
2.81615e-07
2.83218e-07
2.84969e-07
2.86853e-07
2.88816e-07
2.90766e-07
2.92613e-07
2.94166e-07
2.95385e-07
2.95871e-07
2.95492e-07
2.68604e-07
2.67796e-07
2.65872e-07
2.63327e-07
2.60545e-07
2.57627e-07
2.54799e-07
2.52105e-07
2.49681e-07
2.47529e-07
2.4565e-07
2.44034e-07
2.42684e-07
2.41618e-07
2.40813e-07
2.40279e-07
2.39961e-07
2.39877e-07
2.39988e-07
2.40289e-07
2.40743e-07
2.41335e-07
2.4206e-07
2.42908e-07
2.43869e-07
2.44933e-07
2.46088e-07
2.47323e-07
2.48624e-07
2.49983e-07
2.51387e-07
2.52828e-07
2.54293e-07
2.55774e-07
2.57259e-07
2.58739e-07
2.60202e-07
2.6164e-07
2.63042e-07
2.64397e-07
2.65698e-07
2.66933e-07
2.68094e-07
2.69173e-07
2.7016e-07
2.71048e-07
2.71827e-07
2.7249e-07
2.73031e-07
2.73442e-07
2.7372e-07
2.73861e-07
2.73862e-07
2.73721e-07
2.73437e-07
2.73007e-07
2.72436e-07
2.71725e-07
2.7088e-07
2.69908e-07
2.68819e-07
2.67622e-07
2.66327e-07
2.64948e-07
2.63498e-07
2.61994e-07
2.60451e-07
2.58888e-07
2.57321e-07
2.55771e-07
2.54257e-07
2.52797e-07
2.51438e-07
2.50221e-07
2.49139e-07
2.48204e-07
2.47423e-07
2.46815e-07
2.46389e-07
2.46157e-07
2.46118e-07
2.46289e-07
2.46663e-07
2.47243e-07
2.48017e-07
2.49008e-07
2.50208e-07
2.51637e-07
2.53243e-07
2.5503e-07
2.56964e-07
2.59032e-07
2.61185e-07
2.6334e-07
2.65413e-07
2.67231e-07
2.6874e-07
2.69594e-07
2.69647e-07
2.46056e-07
2.4566e-07
2.44179e-07
2.42107e-07
2.39781e-07
2.37315e-07
2.3491e-07
2.32611e-07
2.30538e-07
2.28696e-07
2.27091e-07
2.25713e-07
2.24568e-07
2.23671e-07
2.23003e-07
2.22571e-07
2.22329e-07
2.2229e-07
2.22421e-07
2.22715e-07
2.23139e-07
2.23682e-07
2.24336e-07
2.25093e-07
2.25942e-07
2.26875e-07
2.2788e-07
2.28947e-07
2.30062e-07
2.31218e-07
2.32403e-07
2.33608e-07
2.34823e-07
2.36037e-07
2.37241e-07
2.38426e-07
2.39582e-07
2.407e-07
2.41771e-07
2.42785e-07
2.43734e-07
2.4461e-07
2.45404e-07
2.4611e-07
2.46721e-07
2.47229e-07
2.47628e-07
2.47912e-07
2.48077e-07
2.48118e-07
2.48034e-07
2.47822e-07
2.47483e-07
2.47016e-07
2.46423e-07
2.45704e-07
2.44866e-07
2.43912e-07
2.42851e-07
2.4169e-07
2.40442e-07
2.39115e-07
2.37722e-07
2.36277e-07
2.34794e-07
2.33287e-07
2.31774e-07
2.30271e-07
2.28793e-07
2.2736e-07
2.25988e-07
2.24696e-07
2.23542e-07
2.22531e-07
2.21661e-07