/*--------------------------------*- C++ -*----------------------------------*\
| =========                 |                                                 |
| \\      /  F ield         | OpenFOAM: The Open Source CFD Toolbox           |
|  \\    /   O peration     | Version:  2306                                  |
|   \\  /    A nd           | Website:  www.openfoam.com                      |
|    \\/     M anipulation  |                                                 |
\*---------------------------------------------------------------------------*/
// * * * * * * * * * * * * * * * * * * * * * * * * * * * * * * * * * * * * * //
FoamFile
{
    version         2;
    format          ascii;
    class           volScalarField;
    location        "6237.56999999385971";
    object          k;
}

dimensions      [ 0 2 -2 0 0 0 0 ];

internalField   nonuniform List<scalar> 
14751
(
3.44907e-05
3.41366e-05
3.38789e-05
3.35615e-05
3.31983e-05
3.28441e-05
3.24741e-05
3.21123e-05
3.17375e-05
3.13682e-05
3.09995e-05
3.06404e-05
3.02929e-05
2.99585e-05
2.96412e-05
2.93353e-05
2.90555e-05
2.87869e-05
2.85423e-05
2.83095e-05
2.80995e-05
2.79082e-05
2.77355e-05
2.75815e-05
2.74451e-05
2.73261e-05
2.72235e-05
2.71367e-05
2.70654e-05
2.70085e-05
2.69655e-05
2.6936e-05
2.69192e-05
2.69147e-05
2.69216e-05
2.694e-05
2.69699e-05
2.70097e-05
2.7059e-05
2.71173e-05
2.71839e-05
2.72591e-05
2.73423e-05
2.74335e-05
2.75318e-05
2.76376e-05
2.77503e-05
2.787e-05
2.7996e-05
2.81287e-05
2.82676e-05
2.84125e-05
2.8563e-05
2.87192e-05
2.88811e-05
2.90485e-05
2.9221e-05
2.93991e-05
2.95821e-05
2.97702e-05
2.99628e-05
3.01602e-05
3.03621e-05
3.05683e-05
3.07783e-05
3.09924e-05
3.12098e-05
3.14309e-05
3.16556e-05
3.1883e-05
3.21124e-05
3.23437e-05
3.25764e-05
3.28095e-05
3.30421e-05
3.3274e-05
3.3504e-05
3.37306e-05
3.39527e-05
3.417e-05
3.43802e-05
3.45808e-05
3.47711e-05
3.49507e-05
3.51182e-05
3.527e-05
3.54055e-05
3.55153e-05
3.561e-05
3.56749e-05
3.5717e-05
3.5722e-05
3.56997e-05
3.5629e-05
3.55286e-05
3.53799e-05
3.51745e-05
3.49448e-05
3.47231e-05
3.25669e-05
3.22732e-05
3.20316e-05
3.17629e-05
3.14609e-05
3.11625e-05
3.08553e-05
3.05534e-05
3.02452e-05
2.99406e-05
2.96388e-05
2.93447e-05
2.90611e-05
2.87883e-05
2.853e-05
2.82818e-05
2.80537e-05
2.78364e-05
2.76376e-05
2.74499e-05
2.72797e-05
2.71253e-05
2.69864e-05
2.68628e-05
2.6754e-05
2.66596e-05
2.6579e-05
2.65117e-05
2.64575e-05
2.64154e-05
2.63853e-05
2.63665e-05
2.63586e-05
2.63611e-05
2.63735e-05
2.63956e-05
2.64274e-05
2.64678e-05
2.65164e-05
2.65728e-05
2.66366e-05
2.67078e-05
2.67859e-05
2.68707e-05
2.69619e-05
2.70595e-05
2.7163e-05
2.72726e-05
2.73876e-05
2.75083e-05
2.76342e-05
2.77652e-05
2.7901e-05
2.80415e-05
2.81867e-05
2.83364e-05
2.84903e-05
2.86486e-05
2.88108e-05
2.89769e-05
2.91465e-05
2.93197e-05
2.94961e-05
2.96756e-05
2.98578e-05
3.00426e-05
3.02296e-05
3.04188e-05
3.06099e-05
3.08023e-05
3.09955e-05
3.11891e-05
3.13825e-05
3.15752e-05
3.17662e-05
3.19551e-05
3.21411e-05
3.23228e-05
3.24993e-05
3.267e-05
3.28334e-05
3.29872e-05
3.31311e-05
3.32639e-05
3.33858e-05
3.34928e-05
3.35856e-05
3.36564e-05
3.37126e-05
3.37449e-05
3.37568e-05
3.37397e-05
3.36981e-05
3.3621e-05
3.35156e-05
3.33755e-05
3.31891e-05
3.29842e-05
3.27779e-05
3.14644e-05
3.12008e-05
3.09616e-05
3.0717e-05
3.04464e-05
3.01769e-05
2.99037e-05
2.96353e-05
2.93656e-05
2.90996e-05
2.88383e-05
2.85845e-05
2.83414e-05
2.81085e-05
2.78892e-05
2.76797e-05
2.74873e-05
2.73059e-05
2.71399e-05
2.69849e-05
2.68443e-05
2.6718e-05
2.66051e-05
2.65056e-05
2.64191e-05
2.63451e-05
2.62832e-05
2.62329e-05
2.61941e-05
2.6166e-05
2.61483e-05
2.61405e-05
2.61424e-05
2.61534e-05
2.61731e-05
2.62014e-05
2.6238e-05
2.62822e-05
2.63338e-05
2.63924e-05
2.64576e-05
2.65293e-05
2.66071e-05
2.6691e-05
2.67805e-05
2.68756e-05
2.69761e-05
2.70819e-05
2.71926e-05
2.73083e-05
2.74285e-05
2.75533e-05
2.76822e-05
2.78153e-05
2.79523e-05
2.80931e-05
2.82375e-05
2.83855e-05
2.85367e-05
2.8691e-05
2.88481e-05
2.90078e-05
2.917e-05
2.93344e-05
2.95006e-05
2.96684e-05
2.98375e-05
3.00076e-05
3.01786e-05
3.03497e-05
3.05206e-05
3.06908e-05
3.08597e-05
3.10267e-05
3.11911e-05
3.13523e-05
3.15095e-05
3.16616e-05
3.18078e-05
3.19471e-05
3.20787e-05
3.22002e-05
3.23118e-05
3.24116e-05
3.25007e-05
3.25753e-05
3.26365e-05
3.26777e-05
3.27041e-05
3.271e-05
3.26968e-05
3.26595e-05
3.25992e-05
3.25111e-05
3.23956e-05
3.22538e-05
3.20718e-05
3.18738e-05
3.16688e-05
3.07062e-05
3.04579e-05
3.02183e-05
2.99875e-05
2.97358e-05
2.94848e-05
2.92343e-05
2.89893e-05
2.87471e-05
2.85092e-05
2.82782e-05
2.80551e-05
2.78433e-05
2.76421e-05
2.74541e-05
2.72763e-05
2.71138e-05
2.69626e-05
2.68252e-05
2.66987e-05
2.65846e-05
2.64837e-05
2.63949e-05
2.63182e-05
2.62532e-05
2.61993e-05
2.61563e-05
2.61236e-05
2.61011e-05
2.60882e-05
2.60844e-05
2.60896e-05
2.61032e-05
2.6125e-05
2.61546e-05
2.61917e-05
2.62361e-05
2.62874e-05
2.63452e-05
2.64093e-05
2.64793e-05
2.65551e-05
2.66363e-05
2.67229e-05
2.68145e-05
2.69111e-05
2.70125e-05
2.71187e-05
2.72291e-05
2.73439e-05
2.74628e-05
2.75856e-05
2.7712e-05
2.78419e-05
2.79751e-05
2.81116e-05
2.82509e-05
2.83931e-05
2.85378e-05
2.86849e-05
2.8834e-05
2.8985e-05
2.91375e-05
2.92914e-05
2.94462e-05
2.96017e-05
2.97574e-05
2.99131e-05
3.00685e-05
3.0223e-05
3.03761e-05
3.05274e-05
3.06762e-05
3.0822e-05
3.09641e-05
3.11017e-05
3.12344e-05
3.13609e-05
3.14805e-05
3.15921e-05
3.16953e-05
3.17878e-05
3.18699e-05
3.19395e-05
3.19983e-05
3.20425e-05
3.20738e-05
3.20863e-05
3.20841e-05
3.20635e-05
3.20251e-05
3.1966e-05
3.18858e-05
3.17827e-05
3.16539e-05
3.15042e-05
3.13191e-05
3.11196e-05
3.09107e-05
3.0087e-05
2.98478e-05
2.96089e-05
2.93876e-05
2.91495e-05
2.89132e-05
2.8681e-05
2.84559e-05
2.82366e-05
2.80229e-05
2.78178e-05
2.76215e-05
2.74372e-05
2.72639e-05
2.7104e-05
2.69547e-05
2.68197e-05
2.66964e-05
2.65857e-05
2.64858e-05
2.63971e-05
2.63207e-05
2.62554e-05
2.62012e-05
2.61575e-05
2.6124e-05
2.61003e-05
2.60858e-05
2.60804e-05
2.60836e-05
2.6095e-05
2.61143e-05
2.61412e-05
2.61753e-05
2.62163e-05
2.6264e-05
2.63181e-05
2.63783e-05
2.64442e-05
2.65157e-05
2.65925e-05
2.66743e-05
2.67609e-05
2.68522e-05
2.69479e-05
2.70481e-05
2.71524e-05
2.72608e-05
2.7373e-05
2.7489e-05
2.76083e-05
2.7731e-05
2.78567e-05
2.79853e-05
2.81164e-05
2.82501e-05
2.8386e-05
2.8524e-05
2.86637e-05
2.8805e-05
2.89475e-05
2.9091e-05
2.92351e-05
2.93796e-05
2.9524e-05
2.9668e-05
2.98113e-05
2.99534e-05
3.0094e-05
3.02326e-05
3.03686e-05
3.05015e-05
3.06309e-05
3.0756e-05
3.08763e-05
3.09908e-05
3.10994e-05
3.12006e-05
3.1294e-05
3.13784e-05
3.14537e-05
3.15175e-05
3.15703e-05
3.16103e-05
3.16392e-05
3.16537e-05
3.16555e-05
3.16398e-05
3.16098e-05
3.15634e-05
3.15008e-05
3.14202e-05
3.13208e-05
3.12022e-05
3.10602e-05
3.09009e-05
3.07107e-05
3.0507e-05
3.02939e-05
2.95194e-05
2.92878e-05
2.90521e-05
2.88386e-05
2.86126e-05
2.83903e-05
2.8175e-05
2.79689e-05
2.77709e-05
2.75799e-05
2.7399e-05
2.72279e-05
2.70693e-05
2.69224e-05
2.67887e-05
2.66663e-05
2.65574e-05
2.64604e-05
2.63751e-05
2.63006e-05
2.62363e-05
2.61835e-05
2.6141e-05
2.61087e-05
2.6086e-05
2.60725e-05
2.60679e-05
2.60716e-05
2.60835e-05
2.6103e-05
2.61299e-05
2.61637e-05
2.62043e-05
2.62512e-05
2.63042e-05
2.6363e-05
2.64275e-05
2.64973e-05
2.65721e-05
2.66518e-05
2.6736e-05
2.68245e-05
2.69172e-05
2.70139e-05
2.71145e-05
2.72189e-05
2.73268e-05
2.74382e-05
2.75526e-05
2.76702e-05
2.77905e-05
2.79135e-05
2.80388e-05
2.81662e-05
2.82955e-05
2.84266e-05
2.8559e-05
2.86928e-05
2.88274e-05
2.89627e-05
2.90983e-05
2.92339e-05
2.93691e-05
2.95037e-05
2.96371e-05
2.97691e-05
2.98993e-05
3.00271e-05
3.01522e-05
3.02741e-05
3.03923e-05
3.05061e-05
3.06153e-05
3.0719e-05
3.08167e-05
3.09077e-05
3.09915e-05
3.10671e-05
3.11339e-05
3.11909e-05
3.12381e-05
3.12733e-05
3.12972e-05
3.1308e-05
3.13076e-05
3.12934e-05
3.12669e-05
3.12246e-05
3.11689e-05
3.10989e-05
3.10144e-05
3.09147e-05
3.07985e-05
3.06661e-05
3.05131e-05
3.03454e-05
3.0151e-05
2.99439e-05
2.97284e-05
2.89678e-05
2.87444e-05
2.85151e-05
2.83096e-05
2.80963e-05
2.78885e-05
2.76902e-05
2.75029e-05
2.73258e-05
2.71573e-05
2.69999e-05
2.68532e-05
2.67195e-05
2.65978e-05
2.64893e-05
2.63924e-05
2.63084e-05
2.62363e-05
2.61753e-05
2.61247e-05
2.60837e-05
2.60534e-05
2.60327e-05
2.60213e-05
2.60187e-05
2.60245e-05
2.60383e-05
2.60596e-05
2.60881e-05
2.61235e-05
2.61654e-05
2.62134e-05
2.62673e-05
2.63268e-05
2.63916e-05
2.64614e-05
2.6536e-05
2.66153e-05
2.66989e-05
2.67865e-05
2.6878e-05
2.69731e-05
2.70718e-05
2.71738e-05
2.72791e-05
2.73875e-05
2.74987e-05
2.76127e-05
2.77291e-05
2.78479e-05
2.79688e-05
2.80916e-05
2.82159e-05
2.83416e-05
2.84684e-05
2.85961e-05
2.87243e-05
2.88529e-05
2.89815e-05
2.91098e-05
2.92374e-05
2.93641e-05
2.94893e-05
2.96128e-05
2.9734e-05
2.98527e-05
2.99684e-05
3.00807e-05
3.01891e-05
3.02931e-05
3.03922e-05
3.04859e-05
3.05737e-05
3.06551e-05
3.07294e-05
3.07961e-05
3.08546e-05
3.09041e-05
3.09441e-05
3.09736e-05
3.09928e-05
3.09999e-05
3.09954e-05
3.09783e-05
3.095e-05
3.0909e-05
3.08566e-05
3.07904e-05
3.0712e-05
3.06215e-05
3.05186e-05
3.0403e-05
3.02733e-05
3.01302e-05
2.99694e-05
2.97958e-05
2.95998e-05
2.93919e-05
2.9177e-05
2.84199e-05
2.82064e-05
2.79866e-05
2.77904e-05
2.75913e-05
2.73992e-05
2.72186e-05
2.70503e-05
2.68941e-05
2.67478e-05
2.66136e-05
2.64908e-05
2.63814e-05
2.62841e-05
2.61998e-05
2.61271e-05
2.60667e-05
2.6018e-05
2.59799e-05
2.59518e-05
2.59328e-05
2.59235e-05
2.59232e-05
2.59314e-05
2.59477e-05
2.59715e-05
2.60026e-05
2.60403e-05
2.60845e-05
2.61348e-05
2.61907e-05
2.6252e-05
2.63184e-05
2.63896e-05
2.64654e-05
2.65455e-05
2.66296e-05
2.67176e-05
2.68092e-05
2.69042e-05
2.70022e-05
2.71033e-05
2.72072e-05
2.73139e-05
2.74232e-05
2.75348e-05
2.76486e-05
2.77644e-05
2.78819e-05
2.80011e-05
2.81215e-05
2.82431e-05
2.83654e-05
2.84883e-05
2.86114e-05
2.87346e-05
2.88573e-05
2.89795e-05
2.91008e-05
2.92207e-05
2.9339e-05
2.94552e-05
2.95689e-05
2.96798e-05
2.97875e-05
2.98914e-05
2.99912e-05
3.00865e-05
3.01768e-05
3.02616e-05
3.03405e-05
3.04129e-05
3.04785e-05
3.05367e-05
3.05869e-05
3.06287e-05
3.06616e-05
3.06849e-05
3.06982e-05
3.07006e-05
3.06924e-05
3.06723e-05
3.06408e-05
3.05976e-05
3.05439e-05
3.0479e-05
3.04037e-05
3.03169e-05
3.02196e-05
3.01123e-05
2.99948e-05
2.98671e-05
2.9728e-05
2.95778e-05
2.9413e-05
2.9237e-05
2.90425e-05
2.88372e-05
2.86262e-05
2.78736e-05
2.76721e-05
2.74649e-05
2.72799e-05
2.70966e-05
2.69215e-05
2.67595e-05
2.66107e-05
2.64753e-05
2.63509e-05
2.62393e-05
2.61399e-05
2.60538e-05
2.598e-05
2.59188e-05
2.5869e-05
2.58309e-05
2.58041e-05
2.57872e-05
2.578e-05
2.57812e-05
2.57914e-05
2.58099e-05
2.58361e-05
2.58697e-05
2.59101e-05
2.5957e-05
2.60098e-05
2.60683e-05
2.61321e-05
2.62008e-05
2.62742e-05
2.6352e-05
2.64338e-05
2.65194e-05
2.66086e-05
2.67012e-05
2.67969e-05
2.68954e-05
2.69966e-05
2.71002e-05
2.72063e-05
2.73145e-05
2.74248e-05
2.75369e-05
2.76507e-05
2.77659e-05
2.78824e-05
2.79999e-05
2.81182e-05
2.8237e-05
2.83561e-05
2.84751e-05
2.85938e-05
2.87118e-05
2.8829e-05
2.89448e-05
2.90591e-05
2.91715e-05
2.92815e-05
2.93889e-05
2.94931e-05
2.95938e-05
2.96906e-05
2.97831e-05
2.98708e-05
2.99534e-05
3.00303e-05
3.01012e-05
3.01657e-05
3.02233e-05
3.02736e-05
3.03162e-05
3.03506e-05
3.03764e-05
3.03932e-05
3.04006e-05
3.0398e-05
3.03851e-05
3.03613e-05
3.03268e-05
3.02812e-05
3.02251e-05
3.01586e-05
3.00826e-05
2.99971e-05
2.99027e-05
2.9799e-05
2.96867e-05
2.95668e-05
2.94389e-05
2.93033e-05
2.91587e-05
2.90055e-05
2.88405e-05
2.86658e-05
2.84765e-05
2.82773e-05
2.80738e-05
2.73316e-05
2.7144e-05
2.6952e-05
2.67804e-05
2.66143e-05
2.64575e-05
2.63147e-05
2.61857e-05
2.60709e-05
2.59681e-05
2.58784e-05
2.58013e-05
2.57374e-05
2.56859e-05
2.56465e-05
2.56182e-05
2.56008e-05
2.55941e-05
2.55968e-05
2.56086e-05
2.56283e-05
2.56562e-05
2.56917e-05
2.57343e-05
2.57835e-05
2.58388e-05
2.58998e-05
2.59662e-05
2.60374e-05
2.61133e-05
2.61933e-05
2.62774e-05
2.6365e-05
2.64561e-05
2.65503e-05
2.66473e-05
2.67469e-05
2.6849e-05
2.69532e-05
2.70594e-05
2.71675e-05
2.72772e-05
2.73885e-05
2.75011e-05
2.76149e-05
2.77295e-05
2.78449e-05
2.79607e-05
2.80768e-05
2.81928e-05
2.83085e-05
2.84237e-05
2.85379e-05
2.86509e-05
2.87623e-05
2.88719e-05
2.89793e-05
2.90841e-05
2.9186e-05
2.92845e-05
2.93794e-05
2.94701e-05
2.95562e-05
2.96375e-05
2.97134e-05
2.97835e-05
2.98475e-05
2.99049e-05
2.99555e-05
2.99987e-05
3.00343e-05
3.00619e-05
3.00811e-05
3.00916e-05
3.00931e-05
3.00851e-05
3.00676e-05
3.00399e-05
3.00018e-05
2.99532e-05
2.98947e-05
2.98263e-05
2.97486e-05
2.9662e-05
2.95673e-05
2.94648e-05
2.93553e-05
2.92389e-05
2.91159e-05
2.89876e-05
2.88536e-05
2.87143e-05
2.85685e-05
2.84163e-05
2.82548e-05
2.80852e-05
2.79046e-05
2.7715e-05
2.75223e-05
2.67981e-05
2.66261e-05
2.64515e-05
2.62952e-05
2.61475e-05
2.60097e-05
2.58865e-05
2.57774e-05
2.56829e-05
2.56009e-05
2.55322e-05
2.54762e-05
2.54331e-05
2.54022e-05
2.5383e-05
2.53744e-05
2.53762e-05
2.53879e-05
2.54083e-05
2.54372e-05
2.54735e-05
2.55173e-05
2.5568e-05
2.5625e-05
2.56881e-05
2.57565e-05
2.583e-05
2.59081e-05
2.59905e-05
2.60768e-05
2.61666e-05
2.62598e-05
2.63558e-05
2.64546e-05
2.65558e-05
2.66592e-05
2.67645e-05
2.68715e-05
2.698e-05
2.70899e-05
2.7201e-05
2.73131e-05
2.74261e-05
2.75396e-05
2.76536e-05
2.77677e-05
2.78817e-05
2.79954e-05
2.81085e-05
2.82208e-05
2.83319e-05
2.84416e-05
2.85494e-05
2.86551e-05
2.87584e-05
2.88589e-05
2.89561e-05
2.90499e-05
2.91397e-05
2.92253e-05
2.93061e-05
2.93818e-05
2.94521e-05
2.95164e-05
2.95745e-05
2.96259e-05
2.96703e-05
2.97073e-05
2.97368e-05
2.97582e-05
2.97714e-05
2.97761e-05
2.9772e-05
2.97589e-05
2.97365e-05
2.97047e-05
2.96633e-05
2.96119e-05
2.95504e-05
2.94795e-05
2.93998e-05
2.93118e-05
2.9216e-05
2.9113e-05
2.90034e-05
2.88881e-05
2.87677e-05
2.86429e-05
2.85136e-05
2.83812e-05
2.82454e-05
2.81066e-05
2.79635e-05
2.7816e-05
2.76617e-05
2.75008e-05
2.7332e-05
2.71551e-05
2.69761e-05
2.62776e-05
2.61226e-05
2.5967e-05
2.58274e-05
2.56989e-05
2.55804e-05
2.54768e-05
2.53872e-05
2.53124e-05
2.52503e-05
2.52013e-05
2.51649e-05
2.5141e-05
2.5129e-05
2.51281e-05
2.51375e-05
2.51565e-05
2.51848e-05
2.5221e-05
2.52651e-05
2.53161e-05
2.53738e-05
2.54378e-05
2.55075e-05
2.55825e-05
2.56623e-05
2.57464e-05
2.58346e-05
2.59264e-05
2.60214e-05
2.61194e-05
2.622e-05
2.63229e-05
2.64278e-05
2.65344e-05
2.66426e-05
2.67521e-05
2.68626e-05
2.6974e-05
2.70862e-05
2.71989e-05
2.73119e-05
2.7425e-05
2.7538e-05
2.76506e-05
2.77626e-05
2.78738e-05
2.79839e-05
2.80925e-05
2.81994e-05
2.83043e-05
2.84069e-05
2.85068e-05
2.86037e-05
2.86972e-05
2.87869e-05
2.88726e-05
2.89538e-05
2.90301e-05
2.91012e-05
2.91666e-05
2.92261e-05
2.92791e-05
2.93255e-05
2.93647e-05
2.93965e-05
2.94207e-05
2.94368e-05
2.94447e-05
2.94443e-05
2.94351e-05
2.94172e-05
2.93904e-05
2.93545e-05
2.93095e-05
2.92551e-05
2.91915e-05
2.91183e-05
2.90362e-05
2.89461e-05
2.88487e-05
2.87448e-05
2.86346e-05
2.85192e-05
2.8399e-05
2.82752e-05
2.81483e-05
2.80194e-05
2.78881e-05
2.77559e-05
2.76223e-05
2.74878e-05
2.73511e-05
2.72119e-05
2.7068e-05
2.69189e-05
2.67646e-05
2.66031e-05
2.64403e-05
2.57743e-05
2.56371e-05
2.55015e-05
2.53797e-05
2.52704e-05
2.51712e-05
2.50867e-05
2.5016e-05
2.49598e-05
2.49163e-05
2.48857e-05
2.48673e-05
2.48609e-05
2.48658e-05
2.48813e-05
2.49065e-05
2.49408e-05
2.49837e-05
2.50338e-05
2.50912e-05
2.51548e-05
2.52246e-05
2.52999e-05
2.53804e-05
2.54655e-05
2.55548e-05
2.56479e-05
2.57443e-05
2.58438e-05
2.59459e-05
2.60503e-05
2.61566e-05
2.62646e-05
2.63741e-05
2.64846e-05
2.65961e-05
2.67082e-05
2.68208e-05
2.69336e-05
2.70465e-05
2.71592e-05
2.72716e-05
2.73833e-05
2.74942e-05
2.7604e-05
2.77124e-05
2.78191e-05
2.79239e-05
2.80265e-05
2.81265e-05
2.82237e-05
2.83176e-05
2.8408e-05
2.84945e-05
2.85767e-05
2.86543e-05
2.87269e-05
2.87941e-05
2.88555e-05
2.89109e-05
2.89598e-05
2.90019e-05
2.90369e-05
2.90643e-05
2.90841e-05
2.90958e-05
2.90994e-05
2.90945e-05
2.90811e-05
2.9059e-05
2.90282e-05
2.89885e-05
2.89401e-05
2.88828e-05
2.88168e-05
2.87419e-05
2.86583e-05
2.85662e-05
2.8467e-05
2.83613e-05
2.82501e-05
2.81341e-05
2.80138e-05
2.78902e-05
2.77638e-05
2.76359e-05
2.75067e-05
2.7378e-05
2.72488e-05
2.71207e-05
2.69931e-05
2.68664e-05
2.67394e-05
2.66114e-05
2.64806e-05
2.63459e-05
2.62082e-05
2.60643e-05
2.59195e-05
2.52912e-05
2.51725e-05
2.50572e-05
2.49536e-05
2.48632e-05
2.47827e-05
2.47166e-05
2.46636e-05
2.46249e-05
2.45986e-05
2.45846e-05
2.45824e-05
2.45915e-05
2.46115e-05
2.46413e-05
2.46804e-05
2.47278e-05
2.47832e-05
2.48453e-05
2.49139e-05
2.49882e-05
2.50681e-05
2.5153e-05
2.52423e-05
2.53357e-05
2.54327e-05
2.55329e-05
2.56359e-05
2.57412e-05
2.58486e-05
2.59577e-05
2.60682e-05
2.61798e-05
2.62921e-05
2.6405e-05
2.65181e-05
2.66314e-05
2.67444e-05
2.68571e-05
2.69692e-05
2.70805e-05
2.71906e-05
2.72994e-05
2.74066e-05
2.7512e-05
2.76152e-05
2.77159e-05
2.78139e-05
2.79089e-05
2.80004e-05
2.80883e-05
2.81721e-05
2.82516e-05
2.83262e-05
2.83957e-05
2.84598e-05
2.8518e-05
2.857e-05
2.86155e-05
2.86542e-05
2.86857e-05
2.87096e-05
2.87259e-05
2.87341e-05
2.87341e-05
2.87257e-05
2.87088e-05
2.86833e-05
2.86491e-05
2.86063e-05
2.85549e-05
2.8495e-05
2.84266e-05
2.835e-05
2.82653e-05
2.81725e-05
2.80718e-05
2.79647e-05
2.78521e-05
2.77349e-05
2.76138e-05
2.749e-05
2.73639e-05
2.72365e-05
2.71081e-05
2.69804e-05
2.68533e-05
2.67286e-05
2.66053e-05
2.64848e-05
2.63664e-05
2.62505e-05
2.61358e-05
2.60215e-05
2.5906e-05
2.57878e-05
2.56682e-05
2.55432e-05
2.54177e-05
2.48307e-05
2.47307e-05
2.46354e-05
2.455e-05
2.44778e-05
2.4415e-05
2.4366e-05
2.43296e-05
2.43068e-05
2.42959e-05
2.42968e-05
2.43089e-05
2.43316e-05
2.43645e-05
2.44067e-05
2.44575e-05
2.45159e-05
2.45818e-05
2.46537e-05
2.47317e-05
2.48148e-05
2.49028e-05
2.49952e-05
2.50916e-05
2.51915e-05
2.52944e-05
2.53999e-05
2.55077e-05
2.56172e-05
2.57282e-05
2.58404e-05
2.59533e-05
2.60668e-05
2.61805e-05
2.62941e-05
2.64074e-05
2.65202e-05
2.66322e-05
2.67432e-05
2.68529e-05
2.69611e-05
2.70675e-05
2.71718e-05
2.72738e-05
2.73731e-05
2.74696e-05
2.75628e-05
2.76525e-05
2.77383e-05
2.782e-05
2.78971e-05
2.79694e-05
2.80365e-05
2.8098e-05
2.81537e-05
2.82031e-05
2.82459e-05
2.82818e-05
2.83105e-05
2.83317e-05
2.83452e-05
2.83507e-05
2.8348e-05
2.8337e-05
2.83175e-05
2.82894e-05
2.82527e-05
2.82075e-05
2.81538e-05
2.80918e-05
2.80215e-05
2.79434e-05
2.78575e-05
2.77642e-05
2.76636e-05
2.7556e-05
2.74423e-05
2.7324e-05
2.72022e-05
2.70776e-05
2.69511e-05
2.68238e-05
2.66962e-05
2.65692e-05
2.64431e-05
2.63193e-05
2.61981e-05
2.6081e-05
2.59668e-05
2.58569e-05
2.57504e-05
2.56477e-05
2.55474e-05
2.54486e-05
2.53498e-05
2.52494e-05
2.51488e-05
2.50435e-05
2.49378e-05
2.43942e-05
2.43127e-05
2.42367e-05
2.41688e-05
2.41136e-05
2.40672e-05
2.4034e-05
2.40126e-05
2.4004e-05
2.40068e-05
2.40207e-05
2.4045e-05
2.40793e-05
2.41232e-05
2.41756e-05
2.42361e-05
2.43035e-05
2.43778e-05
2.44576e-05
2.45429e-05
2.46327e-05
2.47271e-05
2.48252e-05
2.49268e-05
2.50313e-05
2.51383e-05
2.52474e-05
2.53582e-05
2.54703e-05
2.55832e-05
2.56968e-05
2.58106e-05
2.59244e-05
2.60378e-05
2.61506e-05
2.62626e-05
2.63733e-05
2.64827e-05
2.65904e-05
2.66962e-05
2.67997e-05
2.69008e-05
2.69991e-05
2.70943e-05
2.71862e-05
2.72744e-05
2.73587e-05
2.74387e-05
2.7514e-05
2.75844e-05
2.76496e-05
2.77091e-05
2.77628e-05
2.78101e-05
2.78509e-05
2.78847e-05
2.79114e-05
2.79306e-05
2.79421e-05
2.79456e-05
2.7941e-05
2.79281e-05
2.79068e-05
2.7877e-05
2.78386e-05
2.77919e-05
2.77367e-05
2.76733e-05
2.76019e-05
2.75227e-05
2.74361e-05
2.73423e-05
2.72418e-05
2.71349e-05
2.7022e-05
2.69034e-05
2.67809e-05
2.66558e-05
2.6529e-05
2.64014e-05
2.62737e-05
2.61471e-05
2.60221e-05
2.58994e-05
2.57792e-05
2.56631e-05
2.55509e-05
2.54443e-05
2.53419e-05
2.52449e-05
2.51524e-05
2.50645e-05
2.498e-05
2.48978e-05
2.48167e-05
2.47346e-05
2.46533e-05
2.45677e-05
2.44819e-05
2.3982e-05
2.39185e-05
2.38608e-05
2.38094e-05
2.37697e-05
2.37383e-05
2.37192e-05
2.3711e-05
2.37148e-05
2.37293e-05
2.37542e-05
2.37889e-05
2.38327e-05
2.38855e-05
2.39461e-05
2.40143e-05
2.40887e-05
2.41693e-05
2.42551e-05
2.43458e-05
2.44406e-05
2.45393e-05
2.46413e-05
2.47463e-05
2.48537e-05
2.4963e-05
2.5074e-05
2.51861e-05
2.5299e-05
2.54123e-05
2.55257e-05
2.56388e-05
2.57513e-05
2.58629e-05
2.59734e-05
2.60823e-05
2.61895e-05
2.62948e-05
2.63976e-05
2.64979e-05
2.65954e-05
2.66897e-05
2.67805e-05
2.68675e-05
2.69506e-05
2.70292e-05
2.71032e-05
2.71722e-05
2.72358e-05
2.72939e-05
2.7346e-05
2.73918e-05
2.7431e-05
2.74634e-05
2.74887e-05
2.75065e-05
2.75167e-05
2.7519e-05
2.75132e-05
2.74992e-05
2.74768e-05
2.74461e-05
2.7407e-05
2.73595e-05
2.73038e-05
2.72399e-05
2.71681e-05
2.70887e-05
2.7002e-05
2.69084e-05
2.68082e-05
2.67021e-05
2.65903e-05
2.64735e-05
2.6352e-05
2.6227e-05
2.61e-05
2.59724e-05
2.58449e-05
2.57184e-05
2.55936e-05
2.54716e-05
2.53528e-05
2.52379e-05
2.5127e-05
2.50213e-05
2.49209e-05
2.4827e-05
2.47383e-05
2.46557e-05
2.45784e-05
2.45064e-05
2.44384e-05
2.43734e-05
2.431e-05
2.42463e-05
2.41839e-05
2.41177e-05
2.40511e-05
2.35942e-05
2.35478e-05
2.35067e-05
2.34705e-05
2.34448e-05
2.34266e-05
2.34198e-05
2.3423e-05
2.34374e-05
2.34616e-05
2.34955e-05
2.35384e-05
2.35898e-05
2.36495e-05
2.37163e-05
2.37902e-05
2.38696e-05
2.39548e-05
2.40445e-05
2.41388e-05
2.42367e-05
2.4338e-05
2.44421e-05
2.45487e-05
2.46572e-05
2.47672e-05
2.48784e-05
2.49902e-05
2.51023e-05
2.52144e-05
2.5326e-05
2.54368e-05
2.55464e-05
2.56547e-05
2.57612e-05
2.58657e-05
2.59679e-05
2.60675e-05
2.61641e-05
2.62575e-05
2.63474e-05
2.64335e-05
2.65156e-05
2.65932e-05
2.66661e-05
2.6734e-05
2.67965e-05
2.68535e-05
2.69045e-05
2.69492e-05
2.69875e-05
2.70189e-05
2.70433e-05
2.70603e-05
2.70698e-05
2.70715e-05
2.70652e-05
2.70509e-05
2.70283e-05
2.69975e-05
2.69584e-05
2.6911e-05
2.68556e-05
2.67921e-05
2.67209e-05
2.66421e-05
2.65562e-05
2.64635e-05
2.63644e-05
2.62595e-05
2.61493e-05
2.60344e-05
2.59153e-05
2.57925e-05
2.56667e-05
2.55396e-05
2.54125e-05
2.52865e-05
2.51623e-05
2.50408e-05
2.49225e-05
2.48086e-05
2.46991e-05
2.45948e-05
2.44956e-05
2.44027e-05
2.43157e-05
2.42361e-05
2.41622e-05
2.4095e-05
2.40335e-05
2.39777e-05
2.39262e-05
2.38781e-05
2.38321e-05
2.37863e-05
2.37419e-05
2.3694e-05
2.36457e-05
2.32299e-05
2.31996e-05
2.31733e-05
2.31506e-05
2.31371e-05
2.31303e-05
2.31339e-05
2.31467e-05
2.31696e-05
2.32016e-05
2.32425e-05
2.32917e-05
2.33487e-05
2.34133e-05
2.34845e-05
2.3562e-05
2.36446e-05
2.37325e-05
2.38244e-05
2.39204e-05
2.40196e-05
2.41217e-05
2.42262e-05
2.43327e-05
2.44407e-05
2.45498e-05
2.46595e-05
2.47694e-05
2.48792e-05
2.49884e-05
2.50967e-05
2.52037e-05
2.5309e-05
2.54125e-05
2.55137e-05
2.56123e-05
2.5708e-05
2.58005e-05
2.58895e-05
2.59748e-05
2.60559e-05
2.61327e-05
2.62047e-05
2.62717e-05
2.63335e-05
2.63897e-05
2.644e-05
2.64841e-05
2.65218e-05
2.65527e-05
2.65767e-05
2.65934e-05
2.66028e-05
2.66045e-05
2.65984e-05
2.65844e-05
2.65623e-05
2.65321e-05
2.64938e-05
2.64474e-05
2.63931e-05
2.63309e-05
2.62611e-05
2.6184e-05
2.60998e-05
2.60089e-05
2.59119e-05
2.58091e-05
2.57012e-05
2.55887e-05
2.54722e-05
2.53524e-05
2.52299e-05
2.51053e-05
2.49796e-05
2.48547e-05
2.47315e-05
2.46109e-05
2.44936e-05
2.43803e-05
2.42716e-05
2.41684e-05
2.40707e-05
2.39791e-05
2.38933e-05
2.38144e-05
2.37421e-05
2.36774e-05
2.36189e-05
2.35672e-05
2.35214e-05
2.34814e-05
2.34459e-05
2.3414e-05
2.33844e-05
2.33554e-05
2.33277e-05
2.32969e-05
2.32653e-05
2.28881e-05
2.28724e-05
2.28589e-05
2.2848e-05
2.28448e-05
2.28475e-05
2.28597e-05
2.288e-05
2.29096e-05
2.29474e-05
2.29934e-05
2.30469e-05
2.31075e-05
2.31751e-05
2.32488e-05
2.33282e-05
2.34122e-05
2.35009e-05
2.35933e-05
2.36893e-05
2.37881e-05
2.38894e-05
2.39926e-05
2.40974e-05
2.42033e-05
2.43098e-05
2.44165e-05
2.45231e-05
2.4629e-05
2.47339e-05
2.48374e-05
2.49392e-05
2.50389e-05
2.51361e-05
2.52306e-05
2.5322e-05
2.541e-05
2.54943e-05
2.55745e-05
2.56504e-05
2.57217e-05
2.57881e-05
2.58492e-05
2.59049e-05
2.59548e-05
2.59986e-05
2.6036e-05
2.60669e-05
2.60909e-05
2.61079e-05
2.61176e-05
2.61198e-05
2.61145e-05
2.61014e-05
2.60805e-05
2.60517e-05
2.60149e-05
2.59703e-05
2.5918e-05
2.58579e-05
2.57905e-05
2.57158e-05
2.56343e-05
2.55463e-05
2.54522e-05
2.53526e-05
2.52478e-05
2.51387e-05
2.50256e-05
2.49093e-05
2.47906e-05
2.46699e-05
2.45481e-05
2.44256e-05
2.43043e-05
2.41853e-05
2.40695e-05
2.39575e-05
2.385e-05
2.37477e-05
2.36509e-05
2.35603e-05
2.3476e-05
2.33982e-05
2.33268e-05
2.32625e-05
2.32051e-05
2.31553e-05
2.31119e-05
2.30752e-05
2.30443e-05
2.30193e-05
2.29988e-05
2.29819e-05
2.29674e-05
2.29536e-05
2.29412e-05
2.29257e-05
2.2909e-05
2.25674e-05
2.25646e-05
2.25619e-05
2.25609e-05
2.2566e-05
2.25764e-05
2.25951e-05
2.26212e-05
2.26555e-05
2.26972e-05
2.27464e-05
2.28023e-05
2.28648e-05
2.29335e-05
2.30078e-05
2.30874e-05
2.3171e-05
2.32589e-05
2.33501e-05
2.34445e-05
2.35413e-05
2.36402e-05
2.37406e-05
2.38421e-05
2.39444e-05
2.40469e-05
2.41492e-05
2.4251e-05
2.43516e-05
2.44509e-05
2.45483e-05
2.46436e-05
2.47363e-05
2.48261e-05
2.49127e-05
2.49958e-05
2.5075e-05
2.515e-05
2.52205e-05
2.52862e-05
2.53469e-05
2.54021e-05
2.54517e-05
2.54954e-05
2.5533e-05
2.55641e-05
2.55886e-05
2.56062e-05
2.56167e-05
2.562e-05
2.56159e-05
2.56043e-05
2.55852e-05
2.55584e-05
2.55239e-05
2.54819e-05
2.54323e-05
2.53752e-05
2.5311e-05
2.52397e-05
2.51618e-05
2.50776e-05
2.49875e-05
2.4892e-05
2.47915e-05
2.46866e-05
2.45779e-05
2.44661e-05
2.43519e-05
2.42358e-05
2.41186e-05
2.4001e-05
2.38835e-05
2.37671e-05
2.36537e-05
2.35438e-05
2.34381e-05
2.33373e-05
2.32418e-05
2.31522e-05
2.30687e-05
2.29919e-05
2.29216e-05
2.28582e-05
2.28013e-05
2.27515e-05
2.27085e-05
2.2673e-05
2.26436e-05
2.26209e-05
2.26038e-05
2.25923e-05
2.25853e-05
2.25818e-05
2.25808e-05
2.25806e-05
2.25814e-05
2.25794e-05
2.25758e-05
2.22663e-05
2.22744e-05
2.22805e-05
2.22875e-05
2.22991e-05
2.23152e-05
2.23387e-05
2.23685e-05
2.24057e-05
2.24495e-05
2.25e-05
2.25566e-05
2.26191e-05
2.26874e-05
2.27606e-05
2.28386e-05
2.29203e-05
2.30059e-05
2.30943e-05
2.31856e-05
2.32788e-05
2.33738e-05
2.34699e-05
2.35669e-05
2.36641e-05
2.37613e-05
2.38579e-05
2.39535e-05
2.40477e-05
2.41401e-05
2.42303e-05
2.43179e-05
2.44025e-05
2.44839e-05
2.45617e-05
2.46355e-05
2.4705e-05
2.477e-05
2.48301e-05
2.4885e-05
2.49345e-05
2.49783e-05
2.50161e-05
2.50477e-05
2.5073e-05
2.50916e-05
2.51034e-05
2.51081e-05
2.51058e-05
2.50962e-05
2.50794e-05
2.50552e-05
2.50236e-05
2.49848e-05
2.49387e-05
2.48854e-05
2.48252e-05
2.47583e-05
2.46849e-05
2.46054e-05
2.45203e-05
2.44298e-05
2.43345e-05
2.4235e-05
2.41318e-05
2.40255e-05
2.39167e-05
2.38062e-05
2.36944e-05
2.35823e-05
2.34703e-05
2.33592e-05
2.32494e-05
2.31425e-05
2.30396e-05
2.29412e-05
2.28477e-05
2.27597e-05
2.26775e-05
2.26016e-05
2.2532e-05
2.24691e-05
2.2413e-05
2.23635e-05
2.23204e-05
2.22843e-05
2.22547e-05
2.22322e-05
2.22156e-05
2.22052e-05
2.22003e-05
2.22006e-05
2.22052e-05
2.22133e-05
2.22238e-05
2.22352e-05
2.22473e-05
2.22567e-05
2.22642e-05
2.19832e-05
2.20002e-05
2.20131e-05
2.20261e-05
2.20425e-05
2.20625e-05
2.20889e-05
2.21207e-05
2.2159e-05
2.22031e-05
2.22532e-05
2.23088e-05
2.23697e-05
2.24359e-05
2.25065e-05
2.25815e-05
2.26597e-05
2.27414e-05
2.28256e-05
2.29124e-05
2.30008e-05
2.30905e-05
2.31811e-05
2.32722e-05
2.33632e-05
2.34538e-05
2.35436e-05
2.3632e-05
2.37186e-05
2.38031e-05
2.38851e-05
2.39641e-05
2.40399e-05
2.41121e-05
2.41803e-05
2.42442e-05
2.43036e-05
2.4358e-05
2.44074e-05
2.44513e-05
2.44895e-05
2.45218e-05
2.45479e-05
2.45678e-05
2.45811e-05
2.45878e-05
2.45877e-05
2.45806e-05
2.45666e-05
2.45455e-05
2.45174e-05
2.44824e-05
2.44404e-05
2.43917e-05
2.43363e-05
2.42745e-05
2.42066e-05
2.41327e-05
2.40534e-05
2.3969e-05
2.38799e-05
2.37868e-05
2.369e-05
2.35902e-05
2.3488e-05
2.3384e-05
2.32788e-05
2.3173e-05
2.30673e-05
2.29623e-05
2.28587e-05
2.2757e-05
2.26577e-05
2.25626e-05
2.24722e-05
2.23868e-05
2.23066e-05
2.22322e-05
2.21638e-05
2.21016e-05
2.20457e-05
2.19964e-05
2.19535e-05
2.1917e-05
2.18866e-05
2.18627e-05
2.1845e-05
2.18337e-05
2.18281e-05
2.18283e-05
2.18335e-05
2.18436e-05
2.18579e-05
2.18755e-05
2.18953e-05
2.19162e-05
2.19375e-05
2.19562e-05
2.19726e-05
2.17168e-05
2.17404e-05
2.17583e-05
2.17755e-05
2.17948e-05
2.1817e-05
2.18445e-05
2.18766e-05
2.19144e-05
2.19572e-05
2.20053e-05
2.20583e-05
2.21162e-05
2.21787e-05
2.22453e-05
2.23158e-05
2.23893e-05
2.24658e-05
2.25446e-05
2.26256e-05
2.27079e-05
2.27913e-05
2.28753e-05
2.29594e-05
2.30432e-05
2.31262e-05
2.32081e-05
2.32885e-05
2.33667e-05
2.34426e-05
2.35156e-05
2.35855e-05
2.36518e-05
2.37143e-05
2.37725e-05
2.38263e-05
2.38753e-05
2.39192e-05
2.39578e-05
2.39908e-05
2.4018e-05
2.40393e-05
2.40544e-05
2.40632e-05
2.40656e-05
2.40615e-05
2.40508e-05
2.40334e-05
2.40093e-05
2.39786e-05
2.39414e-05
2.38978e-05
2.38479e-05
2.3792e-05
2.37302e-05
2.36628e-05
2.35902e-05
2.35128e-05
2.34309e-05
2.3345e-05
2.32557e-05
2.31635e-05
2.30688e-05
2.29724e-05
2.28747e-05
2.27763e-05
2.26779e-05
2.25801e-05
2.24833e-05
2.23882e-05
2.22953e-05
2.2205e-05
2.21184e-05
2.20365e-05
2.19595e-05
2.18877e-05
2.18212e-05
2.17604e-05
2.17054e-05
2.16564e-05
2.16134e-05
2.15764e-05
2.15455e-05
2.15204e-05
2.1501e-05
2.14875e-05
2.14797e-05
2.14778e-05
2.1481e-05
2.14895e-05
2.15027e-05
2.15205e-05
2.15422e-05
2.15671e-05
2.15942e-05
2.16222e-05
2.16507e-05
2.16765e-05
2.16998e-05
2.1466e-05
2.1494e-05
2.1515e-05
2.15345e-05
2.15551e-05
2.15778e-05
2.16049e-05
2.16357e-05
2.16714e-05
2.17115e-05
2.17561e-05
2.18052e-05
2.18586e-05
2.19162e-05
2.19775e-05
2.20424e-05
2.21099e-05
2.21801e-05
2.22524e-05
2.23266e-05
2.24019e-05
2.24779e-05
2.25543e-05
2.26306e-05
2.27064e-05
2.27812e-05
2.28546e-05
2.29262e-05
2.29956e-05
2.30623e-05
2.3126e-05
2.31863e-05
2.3243e-05
2.32956e-05
2.33439e-05
2.33876e-05
2.34264e-05
2.346e-05
2.34883e-05
2.35111e-05
2.35282e-05
2.35393e-05
2.35444e-05
2.35435e-05
2.35364e-05
2.3523e-05
2.35035e-05
2.34777e-05
2.34458e-05
2.34079e-05
2.33641e-05
2.33145e-05
2.32596e-05
2.31994e-05
2.31343e-05
2.30647e-05
2.29908e-05
2.29132e-05
2.28322e-05
2.27484e-05
2.26623e-05
2.25743e-05
2.24851e-05
2.23952e-05
2.23051e-05
2.22153e-05
2.21264e-05
2.20389e-05
2.19533e-05
2.187e-05
2.17895e-05
2.17121e-05