/*--------------------------------*- C++ -*----------------------------------*\
| =========                 |                                                 |
| \\      /  F ield         | OpenFOAM: The Open Source CFD Toolbox           |
|  \\    /   O peration     | Version:  2306                                  |
|   \\  /    A nd           | Website:  www.openfoam.com                      |
|    \\/     M anipulation  |                                                 |
\*---------------------------------------------------------------------------*/
// * * * * * * * * * * * * * * * * * * * * * * * * * * * * * * * * * * * * * //
FoamFile
{
    version         2;
    format          ascii;
    class           volScalarField;
    location        "6237.56999999385971";
    object          nut;
}

dimensions      [ 0 2 -1 0 0 0 0 ];

internalField   nonuniform List<scalar> 
14751
(
1.52853e-05
1.52204e-05
1.51577e-05
1.51395e-05
1.51191e-05
1.51128e-05
1.51249e-05
1.51541e-05
1.52009e-05
1.52594e-05
1.53326e-05
1.54176e-05
1.55174e-05
1.56288e-05
1.57539e-05
1.58874e-05
1.60321e-05
1.61864e-05
1.6348e-05
1.65167e-05
1.66885e-05
1.68663e-05
1.70473e-05
1.72307e-05
1.74155e-05
1.76007e-05
1.77853e-05
1.79683e-05
1.81489e-05
1.83265e-05
1.85003e-05
1.86697e-05
1.88341e-05
1.89931e-05
1.91462e-05
1.92931e-05
1.94336e-05
1.95673e-05
1.96933e-05
1.98118e-05
1.99222e-05
2.00245e-05
2.01186e-05
2.02044e-05
2.02817e-05
2.03504e-05
2.04105e-05
2.0462e-05
2.05047e-05
2.05385e-05
2.05636e-05
2.05797e-05
2.05868e-05
2.0585e-05
2.05741e-05
2.05545e-05
2.05259e-05
2.04887e-05
2.04428e-05
2.03886e-05
2.03259e-05
2.02551e-05
2.01764e-05
2.009e-05
1.99961e-05
1.98951e-05
1.97873e-05
1.9673e-05
1.95531e-05
1.94277e-05
1.92969e-05
1.91614e-05
1.90215e-05
1.88777e-05
1.87303e-05
1.85793e-05
1.84258e-05
1.82699e-05
1.8112e-05
1.79522e-05
1.7792e-05
1.76304e-05
1.74688e-05
1.73067e-05
1.7147e-05
1.69886e-05
1.68343e-05
1.66815e-05
1.65326e-05
1.6389e-05
1.62508e-05
1.61191e-05
1.59924e-05
1.58734e-05
1.57561e-05
1.56506e-05
1.55407e-05
1.54373e-05
1.53423e-05
1.84026e-05
1.8345e-05
1.82874e-05
1.82868e-05
1.82867e-05
1.83029e-05
1.83421e-05
1.84005e-05
1.84796e-05
1.85718e-05
1.86812e-05
1.88036e-05
1.89424e-05
1.90934e-05
1.92586e-05
1.94326e-05
1.96174e-05
1.9812e-05
2.0013e-05
2.02209e-05
2.04306e-05
2.06457e-05
2.08628e-05
2.10811e-05
2.12996e-05
2.15169e-05
2.17323e-05
2.19445e-05
2.21529e-05
2.23568e-05
2.25552e-05
2.27477e-05
2.29338e-05
2.31128e-05
2.32845e-05
2.34484e-05
2.36043e-05
2.3752e-05
2.38906e-05
2.40204e-05
2.41408e-05
2.42518e-05
2.43532e-05
2.44451e-05
2.45272e-05
2.45996e-05
2.46621e-05
2.47148e-05
2.47575e-05
2.47901e-05
2.48128e-05
2.48254e-05
2.48278e-05
2.48201e-05
2.48022e-05
2.47743e-05
2.47363e-05
2.46883e-05
2.46306e-05
2.45633e-05
2.44864e-05
2.44001e-05
2.43046e-05
2.42002e-05
2.40871e-05
2.39656e-05
2.38362e-05
2.3699e-05
2.35548e-05
2.34039e-05
2.32466e-05
2.30832e-05
2.29144e-05
2.27405e-05
2.2562e-05
2.23789e-05
2.21924e-05
2.20026e-05
2.181e-05
2.16147e-05
2.14185e-05
2.12204e-05
2.1022e-05
2.08227e-05
2.06262e-05
2.04311e-05
2.02407e-05
2.00523e-05
1.98686e-05
1.96919e-05
1.95218e-05
1.93606e-05
1.92061e-05
1.90632e-05
1.89234e-05
1.88008e-05
1.86764e-05
1.85635e-05
1.84606e-05
2.19821e-05
2.19283e-05
2.18872e-05
2.19143e-05
2.19439e-05
2.19962e-05
2.20773e-05
2.21814e-05
2.23092e-05
2.24525e-05
2.2616e-05
2.27946e-05
2.29919e-05
2.32021e-05
2.34274e-05
2.36613e-05
2.39065e-05
2.41609e-05
2.44211e-05
2.46871e-05
2.4954e-05
2.52253e-05
2.54972e-05
2.57687e-05
2.60385e-05
2.63052e-05
2.65679e-05
2.68253e-05
2.70767e-05
2.73215e-05
2.75585e-05
2.77875e-05
2.80077e-05
2.82188e-05
2.84202e-05
2.86115e-05
2.87928e-05
2.89636e-05
2.91235e-05
2.92725e-05
2.941e-05
2.95363e-05
2.9651e-05
2.97544e-05
2.9846e-05
2.9926e-05
2.99943e-05
3.0051e-05
3.00959e-05
3.01289e-05
3.01502e-05
3.01595e-05
3.01569e-05
3.01423e-05
3.01155e-05
3.00771e-05
3.00266e-05
2.99643e-05
2.98904e-05
2.98049e-05
2.97079e-05
2.95995e-05
2.94799e-05
2.93496e-05
2.92085e-05
2.90571e-05
2.88957e-05
2.87244e-05
2.85443e-05
2.83553e-05
2.81579e-05
2.79526e-05
2.77399e-05
2.75202e-05
2.72941e-05
2.70618e-05
2.68244e-05
2.65821e-05
2.63358e-05
2.60853e-05
2.58331e-05
2.55779e-05
2.53219e-05
2.50644e-05
2.48101e-05
2.4557e-05
2.43094e-05
2.40641e-05
2.38249e-05
2.35944e-05
2.33726e-05
2.31623e-05
2.29615e-05
2.27761e-05
2.25973e-05
2.24419e-05
2.22893e-05
2.21569e-05
2.20423e-05
2.5865e-05
2.58175e-05
2.58063e-05
2.58736e-05
2.59453e-05
2.60494e-05
2.6189e-05
2.63574e-05
2.6552e-05
2.67654e-05
2.70024e-05
2.72574e-05
2.75335e-05
2.78234e-05
2.81292e-05
2.84431e-05
2.8769e-05
2.91026e-05
2.94414e-05
2.97842e-05
3.01267e-05
3.04725e-05
3.08168e-05
3.11585e-05
3.14961e-05
3.18279e-05
3.2153e-05
3.247e-05
3.27782e-05
3.30767e-05
3.33646e-05
3.36415e-05
3.39066e-05
3.41595e-05
3.43999e-05
3.46272e-05
3.48415e-05
3.50426e-05
3.52299e-05
3.54037e-05
3.55634e-05
3.57092e-05
3.58409e-05
3.59585e-05
3.60617e-05
3.61508e-05
3.62256e-05
3.62865e-05
3.63329e-05
3.63651e-05
3.6383e-05
3.63865e-05
3.63755e-05
3.63499e-05
3.63096e-05
3.62552e-05
3.61861e-05
3.61027e-05
3.6005e-05
3.58932e-05
3.57672e-05
3.56272e-05
3.54733e-05
3.5306e-05
3.51254e-05
3.49316e-05
3.47253e-05
3.45065e-05
3.42761e-05
3.40342e-05
3.37814e-05
3.35181e-05
3.32451e-05
3.29627e-05
3.26716e-05
3.23723e-05
3.2066e-05
3.1753e-05
3.14342e-05
3.11101e-05
3.07832e-05
3.04521e-05
3.012e-05
2.97861e-05
2.94563e-05
2.91279e-05
2.88063e-05
2.84874e-05
2.81774e-05
2.78783e-05
2.7591e-05
2.73178e-05
2.70579e-05
2.68179e-05
2.65902e-05
2.63932e-05
2.62053e-05
2.60499e-05
2.59246e-05
2.99652e-05
2.99305e-05
2.99623e-05
3.00839e-05
3.02119e-05
3.03838e-05
3.05991e-05
3.08494e-05
3.11288e-05
3.14307e-05
3.17598e-05
3.21101e-05
3.24839e-05
3.28721e-05
3.32769e-05
3.36884e-05
3.41128e-05
3.45424e-05
3.49762e-05
3.5411e-05
3.58445e-05
3.62792e-05
3.67099e-05
3.71352e-05
3.75532e-05
3.79621e-05
3.83608e-05
3.87477e-05
3.91223e-05
3.94836e-05
3.98306e-05
4.01627e-05
4.04794e-05
4.07803e-05
4.1065e-05
4.13329e-05
4.15843e-05
4.18189e-05
4.20363e-05
4.22369e-05
4.242e-05
4.25859e-05
4.27346e-05
4.28657e-05
4.29792e-05
4.30755e-05
4.31543e-05
4.32161e-05
4.32604e-05
4.32873e-05
4.32969e-05
4.32889e-05
4.32632e-05
4.32198e-05
4.31586e-05
4.30802e-05
4.29839e-05
4.28704e-05
4.27393e-05
4.2591e-05
4.24253e-05
4.22425e-05
4.20426e-05
4.18263e-05
4.15935e-05
4.13446e-05
4.10801e-05
4.08e-05
4.05055e-05
4.01966e-05
3.9874e-05
3.95382e-05
3.91901e-05
3.88302e-05
3.84593e-05
3.80782e-05
3.76884e-05
3.729e-05
3.68846e-05
3.64729e-05
3.60577e-05
3.56377e-05
3.52169e-05
3.47949e-05
3.43784e-05
3.39643e-05
3.35593e-05
3.31579e-05
3.27689e-05
3.23932e-05
3.20333e-05
3.16912e-05
3.13675e-05
3.10685e-05
3.07891e-05
3.05486e-05
3.03247e-05
3.01485e-05
3.00177e-05
3.42432e-05
3.42317e-05
3.4319e-05
3.45097e-05
3.47074e-05
3.49631e-05
3.52705e-05
3.56205e-05
3.60012e-05
3.64086e-05
3.68466e-05
3.73088e-05
3.77966e-05
3.8299e-05
3.88179e-05
3.93416e-05
3.98783e-05
4.04167e-05
4.09578e-05
4.14961e-05
4.20311e-05
4.2565e-05
4.30915e-05
4.36089e-05
4.41151e-05
4.46082e-05
4.50868e-05
4.55493e-05
4.59953e-05
4.64235e-05
4.6833e-05
4.72234e-05
4.7594e-05
4.79444e-05
4.82744e-05
4.85832e-05
4.88715e-05
4.91389e-05
4.93851e-05
4.96106e-05
4.98146e-05
4.9998e-05
5.01598e-05
5.03004e-05
5.04196e-05
5.05179e-05
5.05952e-05
5.06518e-05
5.06873e-05
5.0702e-05
5.06956e-05
5.06682e-05
5.06195e-05
5.05495e-05
5.04582e-05
5.03462e-05
5.02129e-05
5.00589e-05
4.98839e-05
4.96882e-05
4.94717e-05
4.92347e-05
4.89774e-05
4.87003e-05
4.84036e-05
4.80876e-05
4.77528e-05
4.73997e-05
4.70291e-05
4.66414e-05
4.62373e-05
4.58174e-05
4.5383e-05
4.49346e-05
4.44733e-05
4.4e-05
4.35168e-05
4.30239e-05
4.25231e-05
4.20155e-05
4.15046e-05
4.0989e-05
4.04737e-05
3.99585e-05
3.94515e-05
3.89483e-05
3.84562e-05
3.79697e-05
3.74999e-05
3.70472e-05
3.66148e-05
3.62046e-05
3.58184e-05
3.54627e-05
3.51341e-05
3.48535e-05
3.45982e-05
3.44075e-05
3.42792e-05
3.86884e-05
3.87128e-05
3.8868e-05
3.91413e-05
3.94227e-05
3.9777e-05
4.01919e-05
4.06578e-05
4.11566e-05
4.16842e-05
4.22453e-05
4.28333e-05
4.34483e-05
4.40774e-05
4.47221e-05
4.53686e-05
4.60274e-05
4.66835e-05
4.73395e-05
4.79883e-05
4.86311e-05
4.92695e-05
4.98962e-05
5.05096e-05
5.11071e-05
5.16866e-05
5.22468e-05
5.27859e-05
5.33036e-05
5.37985e-05
5.42697e-05
5.47168e-05
5.51393e-05
5.55368e-05
5.59089e-05
5.62553e-05
5.65766e-05
5.68724e-05
5.71426e-05
5.73878e-05
5.76073e-05
5.78017e-05
5.79701e-05
5.81133e-05
5.8231e-05
5.83238e-05
5.83915e-05
5.84349e-05
5.8453e-05
5.84466e-05
5.84152e-05
5.8359e-05
5.82776e-05
5.81712e-05
5.80398e-05
5.78841e-05
5.77034e-05
5.74984e-05
5.72691e-05
5.70156e-05
5.67377e-05
5.6436e-05
5.61108e-05
5.57628e-05
5.53919e-05
5.49989e-05
5.45843e-05
5.41485e-05
5.36929e-05
5.32176e-05
5.27237e-05
5.2212e-05
5.16839e-05
5.11401e-05
5.05821e-05
5.00112e-05
4.94298e-05
4.88381e-05
4.82385e-05
4.76326e-05
4.70244e-05
4.64125e-05
4.5803e-05
4.51955e-05
4.45983e-05
4.40074e-05
4.34309e-05
4.28632e-05
4.2317e-05
4.17921e-05
4.12927e-05
4.08201e-05
4.03775e-05
3.99713e-05
3.96003e-05
3.92869e-05
3.90081e-05
3.88122e-05
3.86963e-05
4.33074e-05
4.33818e-05
4.36161e-05
4.39849e-05
4.43639e-05
4.48305e-05
4.53669e-05
4.59625e-05
4.65928e-05
4.72544e-05
4.79518e-05
4.86766e-05
4.94284e-05
5.01929e-05
5.09711e-05
5.17473e-05
5.25336e-05
5.33119e-05
5.40866e-05
5.48484e-05
5.56007e-05
5.63444e-05
5.70716e-05
5.77804e-05
5.84678e-05
5.91318e-05
5.97709e-05
6.03834e-05
6.09691e-05
6.15264e-05
6.20546e-05
6.25534e-05
6.30222e-05
6.34609e-05
6.3869e-05
6.42464e-05
6.45937e-05
6.49108e-05
6.51976e-05
6.54547e-05
6.56815e-05
6.58781e-05
6.60446e-05
6.61816e-05
6.62887e-05
6.63668e-05
6.64157e-05
6.64361e-05
6.64272e-05
6.63899e-05
6.63237e-05
6.62287e-05
6.61045e-05
6.59517e-05
6.57702e-05
6.55608e-05
6.53228e-05
6.50572e-05
6.47638e-05
6.4443e-05
6.40946e-05
6.37193e-05
6.33175e-05
6.28902e-05
6.24373e-05
6.19597e-05
6.14582e-05
6.09334e-05
6.03866e-05
5.98184e-05
5.92299e-05
5.86222e-05
5.7997e-05
5.73552e-05
5.66987e-05
5.60289e-05
5.53489e-05
5.4659e-05
5.39622e-05
5.32604e-05
5.25584e-05
5.18545e-05
5.11546e-05
5.04594e-05
4.97781e-05
4.91065e-05
4.84533e-05
4.78124e-05
4.71983e-05
4.66099e-05
4.60524e-05
4.55266e-05
4.50367e-05
4.45896e-05
4.41856e-05
4.38492e-05
4.35572e-05
4.33668e-05
4.32747e-05
4.81172e-05
4.82563e-05
4.85805e-05
4.90569e-05
4.9546e-05
5.01372e-05
5.08072e-05
5.15441e-05
5.23168e-05
5.31224e-05
5.39648e-05
5.48349e-05
5.57319e-05
5.66368e-05
5.7552e-05
5.84607e-05
5.93761e-05
6.02771e-05
6.11696e-05
6.20432e-05
6.29026e-05
6.37485e-05
6.45723e-05
6.53719e-05
6.61443e-05
6.68871e-05
6.7599e-05
6.82782e-05
6.89249e-05
6.95372e-05
7.01148e-05
7.06571e-05
7.1164e-05
7.16353e-05
7.20707e-05
7.24702e-05
7.28345e-05
7.31636e-05
7.34576e-05
7.3717e-05
7.39406e-05
7.41298e-05
7.42844e-05
7.44053e-05
7.44918e-05
7.4545e-05
7.45649e-05
7.45523e-05
7.45064e-05
7.44281e-05
7.43171e-05
7.41735e-05
7.3997e-05
7.37881e-05
7.35472e-05
7.32749e-05
7.29708e-05
7.2636e-05
7.22703e-05
7.18743e-05
7.14478e-05
7.0992e-05
7.05071e-05
6.99944e-05
6.9454e-05
6.88871e-05
6.82944e-05
6.76769e-05
6.70362e-05
6.63729e-05
6.56885e-05
6.49842e-05
6.42621e-05
6.35234e-05
6.27703e-05
6.20047e-05
6.12298e-05
6.04465e-05
5.96582e-05
5.88672e-05
5.80785e-05
5.72891e-05
5.65073e-05
5.57339e-05
5.49786e-05
5.42369e-05
5.35179e-05
5.2815e-05
5.21442e-05
5.15039e-05
5.08997e-05
5.03321e-05
4.98062e-05
4.93292e-05
4.89032e-05
4.85551e-05
4.82612e-05
4.80876e-05
4.80308e-05
5.31409e-05
5.33588e-05
5.37817e-05
5.43761e-05
5.49866e-05
5.5713e-05
5.65266e-05
5.74137e-05
5.83372e-05
5.92936e-05
6.02867e-05
6.13064e-05
6.23518e-05
6.34003e-05
6.4453e-05
6.54932e-05
6.65349e-05
6.75553e-05
6.85614e-05
6.95417e-05
7.05023e-05
7.14439e-05
7.2357e-05
7.32397e-05
7.40886e-05
7.49016e-05
7.56773e-05
7.6414e-05
7.7112e-05
7.77696e-05
7.83864e-05
7.89622e-05
7.94969e-05
7.99904e-05
8.04427e-05
8.08537e-05
8.12245e-05
8.15552e-05
8.18455e-05
8.20957e-05
8.23056e-05
8.24768e-05
8.26091e-05
8.27033e-05
8.27588e-05
8.2777e-05
8.27577e-05
8.27021e-05
8.26092e-05
8.24804e-05
8.23151e-05
8.21137e-05
8.18759e-05
8.16025e-05
8.12939e-05
8.0951e-05
8.05733e-05
8.01623e-05
7.97178e-05
7.92406e-05
7.87307e-05
7.81894e-05
7.76172e-05
7.70156e-05
7.63848e-05
7.57264e-05
7.50412e-05
7.43305e-05
7.3596e-05
7.28387e-05
7.20602e-05
7.12622e-05
7.0447e-05
6.9616e-05
6.87718e-05
6.79168e-05
6.70546e-05
6.61863e-05
6.53159e-05
6.44453e-05
6.35786e-05
6.27153e-05
6.18636e-05
6.10246e-05
6.02081e-05
5.94093e-05
5.86377e-05
5.78862e-05
5.7172e-05
5.64928e-05
5.58547e-05
5.52579e-05
5.47082e-05
5.42134e-05
5.37769e-05
5.34285e-05
5.31441e-05
5.29987e-05
5.29885e-05
5.84048e-05
5.8714e-05
5.92434e-05
5.99638e-05
6.07048e-05
6.15746e-05
6.2539e-05
6.35826e-05
6.46619e-05
6.57727e-05
6.69187e-05
6.80888e-05
6.92817e-05
7.04718e-05
7.16613e-05
7.28283e-05
7.39897e-05
7.51228e-05
7.62346e-05
7.73134e-05
7.83663e-05
7.93939e-05
8.03865e-05
8.13418e-05
8.22566e-05
8.31287e-05
8.39569e-05
8.47397e-05
8.54776e-05
8.61689e-05
8.68134e-05
8.74111e-05
8.7962e-05
8.84662e-05
8.89239e-05
8.93352e-05
8.97013e-05
9.00215e-05
9.02961e-05
9.05262e-05
9.07117e-05
9.08542e-05
9.09535e-05
9.10106e-05
9.1025e-05
9.09981e-05
9.093e-05
9.08219e-05
9.0673e-05
9.04847e-05
9.02568e-05
8.99895e-05
8.96828e-05
8.93378e-05
8.89547e-05
8.85349e-05
8.8078e-05
8.75857e-05
8.70579e-05
8.64957e-05
8.58992e-05
8.52699e-05
8.46087e-05
8.39172e-05
8.31959e-05
8.24466e-05
8.16703e-05
8.08687e-05
8.00438e-05
7.91966e-05
7.83291e-05
7.74434e-05
7.65419e-05
7.56265e-05
7.47002e-05
7.37654e-05
7.28266e-05
7.18849e-05
7.09443e-05
7.00052e-05
6.90743e-05
6.81511e-05
6.7244e-05
6.63539e-05
6.54909e-05
6.46499e-05
6.38404e-05
6.30549e-05
6.23114e-05
6.16072e-05
6.09486e-05
6.03355e-05
5.97741e-05
5.92733e-05
5.88376e-05
5.84998e-05
5.82357e-05
5.81285e-05
5.81751e-05
6.39358e-05
6.43462e-05
6.49869e-05
6.58388e-05
6.67172e-05
6.7736e-05
6.88557e-05
7.00586e-05
7.12956e-05
7.25612e-05
7.38586e-05
7.51764e-05
7.65123e-05
7.78385e-05
7.91578e-05
8.04445e-05
8.17187e-05
8.29543e-05
8.41612e-05
8.53276e-05
8.64615e-05
8.75632e-05
8.86229e-05
8.96383e-05
9.06064e-05
9.1525e-05
9.23931e-05
9.32092e-05
9.39743e-05
9.46866e-05
9.53463e-05
9.59535e-05
9.65084e-05
9.70113e-05
9.74625e-05
9.78622e-05
9.82107e-05
9.85086e-05
9.87565e-05
9.89557e-05
9.9106e-05
9.92094e-05
9.92656e-05
9.92758e-05
9.92396e-05
9.91585e-05
9.90327e-05
9.88638e-05
9.86509e-05
9.83956e-05
9.80978e-05
9.77581e-05
9.73766e-05
9.69543e-05
9.64919e-05
9.59909e-05
9.54512e-05
9.48745e-05
9.42612e-05
9.36124e-05
9.29285e-05
9.22114e-05
9.1462e-05
9.06823e-05
8.98731e-05
8.90363e-05
8.81734e-05
8.72861e-05
8.63769e-05
8.5447e-05
8.44988e-05
8.35343e-05
8.25567e-05
8.15679e-05
8.05711e-05
7.95694e-05
7.85675e-05
7.75669e-05
7.65685e-05
7.55764e-05
7.45971e-05
7.36301e-05
7.26835e-05
7.17585e-05
7.0865e-05
6.99975e-05
6.91656e-05
6.8361e-05
6.76026e-05
6.68871e-05
6.62209e-05
6.56036e-05
6.5042e-05
6.45461e-05
6.41212e-05
6.38035e-05
6.35686e-05
6.3508e-05
6.36197e-05
6.97603e-05
7.02779e-05
7.10328e-05
7.20185e-05
7.30383e-05
7.42088e-05
7.54848e-05
7.68467e-05
7.82396e-05
7.96567e-05
8.11009e-05
8.25601e-05
8.40314e-05
8.5485e-05
8.69238e-05
8.83199e-05
8.96968e-05
9.10242e-05
9.23126e-05
9.35537e-05
9.47551e-05
9.59172e-05
9.70302e-05
9.80919e-05
9.90994e-05
0.000100051
0.000100945
0.000101781
0.00010256
0.00010328
0.000103942
0.000104546
0.000105092
0.000105582
0.000106014
0.000106389
0.000106708
0.000106973
0.000107184
0.000107342
0.000107447
0.000107502
0.000107505
0.00010746
0.000107365
0.000107221
0.00010703
0.000106793
0.00010651
0.000106182
0.000105809
0.000105392
0.000104931
0.000104428
0.000103884
0.000103299
0.000102675
0.000102014
0.000101315
0.000100581
9.98112e-05
9.90088e-05
9.81749e-05
9.73115e-05
9.64197e-05
9.55018e-05
9.45596e-05
9.3595e-05
9.26107e-05
9.16083e-05
9.05904e-05
8.95593e-05
8.85184e-05
8.747e-05
8.64175e-05
8.53643e-05
8.43156e-05
8.327e-05
8.2231e-05
8.12032e-05
8.01928e-05
7.91992e-05
7.82304e-05
7.72873e-05
7.63796e-05
7.55016e-05
7.46624e-05
7.38534e-05
7.30936e-05
7.23794e-05
7.17173e-05
7.11066e-05
7.05546e-05
7.00722e-05
6.96662e-05
6.93758e-05
6.91768e-05
6.91686e-05
6.93511e-05
7.59024e-05
7.65289e-05
7.73975e-05
7.85161e-05
7.96786e-05
8.10003e-05
8.24306e-05
8.39475e-05
8.54912e-05
8.70534e-05
8.86363e-05
9.02275e-05
9.18234e-05
9.33927e-05
9.49383e-05
9.64309e-05
9.78964e-05
9.9302e-05
0.000100661
0.000101962
0.000103216
0.000104423
0.000105575
0.000106668
0.0001077
0.00010867
0.000109576
0.000110418
0.000111197
0.000111912
0.000112563
0.000113152
0.000113677
0.000114139
0.00011454
0.00011488
0.00011516
0.000115381
0.000115545
0.000115652
0.000115703
0.000115701
0.000115644
0.000115535
0.000115374
0.000115162
0.0001149
0.00011459
0.000114231
0.000113826
0.000113374
0.000112877
0.000112335
0.00011175
0.000111123
0.000110455
0.000109748
0.000109004
0.000108222
0.000107406
0.000106555
0.000105673
0.000104761
0.000103822
0.000102856
0.000101866
0.000100855
9.98243e-05
9.87773e-05
9.77155e-05
9.6642e-05
9.55593e-05
9.44709e-05
9.33793e-05
9.22883e-05
9.12012e-05
9.01228e-05
8.90498e-05
8.79889e-05
8.69438e-05
8.59206e-05
8.49183e-05
8.39445e-05
8.30001e-05
8.20943e-05
8.12209e-05
8.03886e-05
7.95881e-05
7.88389e-05
7.81367e-05
7.74883e-05
7.68925e-05
7.63571e-05
7.58945e-05
7.55124e-05
7.52535e-05
7.5094e-05
7.51408e-05
7.53967e-05
8.23834e-05
8.31154e-05
8.40945e-05
8.53414e-05
8.66448e-05
8.8114e-05
8.96931e-05
9.13579e-05
9.30441e-05
9.47417e-05
9.64523e-05
9.81635e-05
9.98706e-05
0.000101542
0.000103179
0.000104753
0.000106292
0.00010776
0.000109173
0.000110519
0.000111811
0.000113049
0.000114225
0.000115335
0.000116377
0.00011735
0.000118255
0.000119089
0.000119855
0.000120551
0.000121178
0.000121738
0.000122229
0.000122655
0.000123014
0.000123308
0.000123539
0.000123708
0.000123816
0.000123865
0.000123854
0.000123787
0.000123664
0.000123486
0.000123253
0.000122967
0.00012263
0.000122244
0.000121807
0.000121323
0.000120791
0.000120214
0.000119591
0.000118925
0.000118217
0.000117469
0.000116683
0.000115859
0.000115001
0.000114109
0.000113186
0.000112232
0.000111252
0.000110246
0.000109218
0.000108169
0.000107102
0.00010602
0.000104925
0.000103821
0.000102708
0.000101592
0.000100474
9.93585e-05
9.82483e-05
9.71475e-05
9.60564e-05
9.49761e-05
9.39127e-05
9.28693e-05
9.18517e-05
9.08583e-05
8.98964e-05
8.89663e-05
8.80771e-05
8.72217e-05
8.64085e-05
8.56273e-05
8.48978e-05
8.42156e-05
8.35871e-05
8.30113e-05
8.24963e-05
8.20559e-05
8.16992e-05
8.14724e-05
8.13523e-05
8.14531e-05
8.17814e-05
8.92212e-05
9.00499e-05
9.1133e-05
9.25009e-05
9.394e-05
9.555e-05
9.72693e-05
9.90717e-05
0.000100889
0.00010271
0.000104534
0.000106351
0.000108154
0.000109911
0.000111624
0.000113264
0.000114858
0.000116372
0.000117823
0.000119199
0.000120512
0.000121766
0.000122949
0.000124061
0.0001251
0.000126063
0.000126952
0.000127765
0.000128505
0.00012917
0.000129762
0.000130282
0.00013073
0.000131108
0.000131417
0.000131657
0.000131831
0.00013194
0.000131985
0.000131968
0.00013189
0.000131753
0.000131559
0.000131307
0.000131
0.000130638
0.000130224
0.000129759
0.000129244
0.000128682
0.000128071
0.000127415
0.000126715
0.000125972
0.000125188
0.000124366
0.000123507
0.000122613
0.000121686
0.000120729
0.000119742
0.00011873
0.000117693
0.000116636
0.000115559
0.000114467
0.000113361
0.000112245
0.000111121
0.000109993
0.000108862
0.000107731
0.000106605
0.000105487
0.000104378
0.000103283
0.0001022
0.000101133
0.000100086
9.90633e-05
9.80689e-05
9.71008e-05
9.61659e-05
9.5264e-05
9.44036e-05
9.35769e-05
9.27917e-05
9.20371e-05
9.1333e-05
9.06746e-05
9.00685e-05
8.95135e-05
8.90183e-05
8.85985e-05
8.82646e-05
8.8066e-05
8.79813e-05
8.81311e-05
8.85268e-05
9.64301e-05
9.73418e-05
9.85191e-05
9.99976e-05
0.000101564
0.000103305
0.000105153
0.00010708
0.000109015
0.000110944
0.000112867
0.000114773
0.000116654
0.00011848
0.000120251
0.000121939
0.000123571
0.000125116
0.000126588
0.000127976
0.000129296
0.000130549
0.000131727
0.000132827
0.000133847
0.000134788
0.000135648
0.000136428
0.00013713
0.000137754
0.000138301
0.000138771
0.000139167
0.000139489
0.000139739
0.000139918
0.000140029
0.000140072
0.000140049
0.000139962
0.000139813
0.000139603
0.000139334
0.000139008
0.000138625
0.000138187
0.000137697
0.000137156
0.000136564
0.000135926
0.000135241
0.000134512
0.00013374
0.000132926
0.000132075
0.000131187
0.000130265
0.000129311
0.000128328
0.000127319
0.000126284
0.000125227
0.000124151
0.000123059
0.000121953
0.000120836
0.000119711
0.000118582
0.00011745
0.000116319
0.000115192
0.00011407
0.000112959
0.00011186
0.000110776
0.000109705
0.000108651
0.000107617
0.000106606
0.000105621
0.000104666
0.000103737
0.000102841
0.000101978
0.000101155
0.000100364
9.96117e-05
9.88865e-05
9.82087e-05
9.75734e-05
9.69872e-05
9.6449e-05
9.59683e-05
9.55625e-05
9.52439e-05
9.50653e-05
9.50075e-05
9.5197e-05
9.56512e-05
0.000104021
0.000104995
0.000106257
0.000107833
0.000109516
0.000111376
0.000113338
0.000115374
0.00011741
0.00011943
0.000121435
0.000123412
0.000125355
0.000127231
0.000129042
0.000130761
0.000132414
0.000133972
0.000135448
0.000136835
0.000138146
0.000139384
0.000140541
0.000141616
0.000142606
0.000143511
0.000144332
0.000145068
0.000145723
0.000146296
0.000146789
0.000147202
0.000147538
0.000147798
0.000147984
0.000148096
0.000148139
0.000148112
0.000148018
0.000147859
0.000147637
0.000147354
0.000147011
0.00014661
0.000146153
0.000145642
0.000145078
0.000144465
0.000143803
0.000143095
0.000142343
0.000141549
0.000140714
0.000139841
0.000138933
0.000137992
0.000137021
0.000136022
0.000134999
0.000133953
0.000132888
0.000131806
0.00013071
0.000129604
0.00012849
0.000127371
0.000126251
0.000125132
0.000124016
0.000122908
0.000121808
0.00012072
0.000119647
0.00011859
0.000117552
0.000116527
0.000115522
0.000114539
0.000113581
0.000112648
0.000111744
0.000110866
0.000110018
0.0001092
0.000108418
0.000107664
0.000106944
0.000106246
0.00010559
0.000104971
0.000104397
0.000103866
0.000103389
0.000102985
0.00010267
0.000102498
0.000102454
0.00010267
0.000103169
0.000112001
0.000113014
0.000114347
0.000116007
0.000117793
0.000119755
0.000121816
0.000123945
0.000126063
0.000128157
0.000130225
0.000132256
0.000134241
0.000136149
0.000137983
0.000139715
0.000141373
0.000142927
0.000144393
0.000145763
0.000147051
0.000148261
0.000149385
0.000150422
0.000151371
0.000152231
0.000153002
0.000153686
0.000154286
0.000154801
0.000155233
0.000155583
0.000155854
0.000156047
0.000156165
0.000156208
0.00015618
0.000156082
0.000155917
0.000155686
0.000155392
0.000155037
0.000154623
0.000154152
0.000153625
0.000153046
0.000152416
0.000151738
0.000151014
0.000150247
0.000149438
0.00014859
0.000147706
0.000146787
0.000145837
0.00014486
0.000143857
0.000142832
0.000141788
0.000140727
0.000139653
0.000138569
0.000137477
0.000136382
0.000135285
0.00013419
0.0001331
0.000132017
0.000130945
0.000129885
0.000128839
0.00012781
0.000126799
0.000125809
0.000124835
0.000123875
0.000122938
0.000122022
0.00012113
0.00012026
0.000119416
0.000118593
0.000117796
0.000117023
0.000116281
0.00011556
0.000114866
0.000114185
0.00011354
0.000112926
0.000112349
0.00011181
0.00011132
0.000110902
0.000110571
0.000110388
0.000110341
0.000110565
0.000111093
0.000120379
0.000121404
0.000122794
0.00012452
0.000126392
0.000128441
0.000130583
0.000132784
0.000134967
0.000137116
0.000139228
0.000141294
0.000143303
0.000145226
0.000147065
0.000148795
0.000150441
0.000151977
0.000153418
0.000154757
0.000156011
0.000157181
0.000158262
0.000159251
0.000160149
0.000160954
0.000161669
0.000162294
0.000162832
0.000163284
0.00016365
0.000163934
0.000164138
0.000164262
0.000164311
0.000164285
0.000164187
0.000164019
0.000163784
0.000163485
0.000163123
0.000162701
0.000162222
0.000161687
0.000161099
0.000160461
0.000159775
0.000159044
0.00015827
0.000157457
0.000156606
0.000155721
0.000154804
0.000153858
0.000152886
0.000151893
0.00015088
0.000149851
0.00014881
0.00014776
0.000146703
0.000145643
0.000144582
0.000143525
0.000142474
0.000141432
0.000140401
0.000139384
0.000138382
0.000137398
0.000136433
0.000135487
0.000134563
0.000133659
0.000132767
0.00013189
0.000131034
0.000130197
0.000129379
0.000128578
0.000127796
0.000127029
0.000126279
0.000125546
0.000124835
0.000124135
0.000123453
0.000122775
0.000122123
0.000121493
0.000120893
0.000120324
0.000119799
0.000119343
0.000118975
0.000118758
0.000118685
0.000118897
0.000119433
0.00012916
0.000130172
0.000131599
0.000133374
0.000135315
0.000137431
0.000139634
0.000141889
0.000144118
0.000146303
0.000148441
0.000150523
0.000152538
0.00015446
0.000156288
0.000157999
0.00015962
0.000161124
0.000162528
0.000163827
0.000165034
0.000166155
0.000167183
0.000168117
0.000168957
0.000169703
0.000170356
0.000170917
0.00017139
0.000171775
0.000172075
0.000172292
0.000172428
0.000172485
0.000172466
0.000172373
0.000172209
0.000171976
0.000171678
0.000171316
0.000170894
0.000170414
0.000169879
0.000169292
0.000168654
0.00016797
0.000167242
0.000166473
0.000165666
0.000164825
0.000163951
0.000163049
0.000162121
0.00016117
0.0001602
0.000159216
0.000158219
0.000157215
0.000156205
0.000155194
0.000154184
0.000153178
0.00015218
0.000151193
0.000150219
0.00014926
0.000148319
0.000147396
0.000146495
0.000145614
0.000144754
0.000143916
0.000143099
0.000142298
0.000141503
0.000140722
0.000139957
0.000139204
0.000138462
0.000137729
0.000137006
0.000136286
0.000135574
0.000134866
0.000134169
0.000133472
0.000132781
0.000132082
0.000131399
0.000130728
0.000130078
0.000129451
0.000128862
0.00012834
0.000127906
0.000127628
0.000127504
0.000127677
0.000128198
0.000138352
0.000139325
0.00014077
0.000142575
0.000144564
0.000146727
0.000148972
0.000151261
0.000153517
0.00015572
0.000157866
0.000159947
0.000161953
0.000163857
0.00016566
0.00016734
0.000168922
0.000170384
0.000171741
0.000172989
0.000174143
0.000175208
0.000176177
0.00017705
0.000177828
0.00017851
0.000179098
0.000179594
0.000180002
0.000180322
0.000180556
0.000180708
0.000180779
0.000180773
0.000180692
0.000180538
0.000180315
0.000180026
0.000179673
0.00017926
0.000178788
0.000178263
0.000177687
0.000177062
0.000176391
0.000175678
0.000174926
0.00017414
0.000173321
0.000172474
0.000171602
0.000170707
0.000169794
0.000168866
0.000167928
0.000166982
0.000166033
0.000165083
0.000164138
0.000163199
0.000162269
0.000161352
0.00016045
0.000159567
0.000158702
0.000157859
0.000157039
0.000156241
0.000155467
0.000154716
0.000153986
0.000153275
0.000152585
0.000151894
0.000151208
0.000150529
0.000149858
0.000149188
0.000148517
0.000147843
0.000147166
0.000146479
0.000145785
0.000145081
0.000144375
0.000143655
0.000142925
0.000142175
0.000141429
0.000140683
0.000139949
0.00013923
0.000138544
0.000137922
0.00013739
0.000137019
0.000136813
0.00013692
0.000137399
0.000147968
0.000148877
0.000150318
0.000152133
0.000154148
0.000156338
0.000158605
0.00016091
0.000163173
0.000165377
0.000167515
0.00016958
0.000171562
0.000173436
0.000175201
0.000176839
0.000178373
0.000179784
0.000181086
0.000182277
0.000183372
0.000184376
0.000185283
0.000186093
0.000186808
0.000187426
0.000187951
0.000188384
0.000188729
0.000188987
0.000189161
0.000189253
0.000189267
0.000189206
0.000189071
0.000188867
0.000188596
0.000188262
0.000187868
0.000187418
0.000186914
0.000186361
0.000185761
0.000185118
0.000184434
0.000183715
0.000182964
0.000182185
0.00018138
0.000180555
0.000179713
0.000178857
0.00017799
0.000177118
0.000176243
0.000175371
0.000174503
0.000173646
0.0001728
0.00017197
0.000171157
0.000170365
0.000169595
0.00016885
0.000168129
0.000167435
0.000166765
0.000166121
0.0001655
0.000164901
0.000164319
0.000163752
0.000163194
0.000162624
0.000162051
0.000161473
0.000160889
0.000160293
0.000159682
0.00015905
0.000158398
0.00015772
0.000157017
0.000156289
0.000155541
0.000154763
0.000153959
0.000153121
0.000152272
0.000151412
0.000150554
0.000149704
0.00014888
0.00014812
0.000147452
0.000146953
0.000146632
0.000146641
0.000147049
0.000158024
0.000158846
0.000160258
0.000162062
0.000164084
0.00016628
0.00016855
0.000170852
0.000173107
0.000175296
0.000177411
0.000179447
0.000181393
0.000183226
0.000184944
0.000186531
0.000188011
0.000189365
0.000190607
0.000191738
0.000192772
0.000193714
0.000194559
0.000195308
0.000195961
0.000196519
0.000196985
0.000197361
0.000197649
0.000197854
0.000197976
0.000198019
0.000197987
0.000197882
0.000197707
0.000197467
0.000197164
0.000196803
0.000196386
0.000195918
0.000195402
0.000194842
0.000194242
0.000193606
0.000192937
0.000192239
0.000191517
0.000190775
0.000190016
0.000189246
0.000188467
0.000187684
0.000186901
0.00018612
0.000185348
0.000184587
0.000183841
0.000183114
0.000182408
0.000181725
0.000181068
0.000180438
0.000179837
0.000179264
0.000178721
0.000178205
0.000177714
0.000177248
0.000176802
0.000176372
0.000175953
0.000175539
0.000175113
0.000174664
0.000174199
0.000173713
0.000173205
0.000172665
0.000172091
0.000171476
0.000170822
0.00017012
0.000169375
0.000168585
0.000167756
0.000166878
0.000165958
0.000164986
0.000163989
0.000162969
0.000161941
0.000160914
0.00015991
0.000158968
0.000158123
0.000157455
0.000156983
0.00015686
0.000157165
0.000168543
0.000169256
0.000170615
0.000172388
0.000174393
0.000176576
0.000178832
0.000181116
0.000183347
0.000185508
0.000187589
0.000189585
0.000191486
0.00019327
0.000194935
0.000196467
0.000197888
0.000199183
0.000200365
0.000201437
0.000202412
0.000203294
0.000204081
0.000204774
0.000205372
0.000205877
0.000206293
0.00020662
0.000206864
0.000207026
0.00020711
0.000207118
0.000207055
0.000206924
0.000206728
0.00020647
0.000206156
0.000205789
0.000205373
0.000204912
0.00020441
0.000203871
0.0002033
0.0002027
0.000202076
0.000201433
0.000200774
0.000200104
0.000199428
0.00019875
0.000198074
0.000197404
0.000196744
0.000196097
0.000195468
0.000194861
0.000194277
0.000193722
0.000193196
0.000192701
0.000192238
0.000191808
0.00019141
0.000191043
0.000190706
0.000190395
0.000190108
0.000189838
0.000189583
0.000189333
0.000189082