/*--------------------------------*- C++ -*----------------------------------*\
  =========                 |
  \\      /  F ield         | OpenFOAM: The Open Source CFD Toolbox
   \\    /   O peration     | Website:  https://openfoam.org
    \\  /    A nd           | Version:  7
     \\/     M anipulation  |
\*---------------------------------------------------------------------------*/
FoamFile
{
    version     2.0;
    format      ascii;
    class       volScalarField;
    location    "6237.56999999385971";
    object      p;
}
// * * * * * * * * * * * * * * * * * * * * * * * * * * * * * * * * * * * * * //

dimensions      [0 2 -2 0 0 0 0];

internalField   nonuniform List<scalar> 
14751
(
2.77268e-19
3.20082e-06
7.19216e-06
1.14183e-05
1.54244e-05
1.97601e-05
2.39549e-05
2.82941e-05
3.24936e-05
3.6635e-05
4.06681e-05
4.45294e-05
4.82931e-05
5.17973e-05
5.52044e-05
5.8284e-05
6.12667e-05
6.39284e-05
6.64396e-05
6.86669e-05
7.0692e-05
7.24922e-05
7.40723e-05
7.54394e-05
7.65981e-05
7.75529e-05
7.83144e-05
7.88836e-05
7.92753e-05
7.94904e-05
7.95399e-05
7.94288e-05
7.91652e-05
7.87547e-05
7.82054e-05
7.752e-05
7.67083e-05
7.57735e-05
7.47196e-05
7.35562e-05
7.22811e-05
7.09065e-05
6.94292e-05
6.7861e-05
6.61972e-05
6.44499e-05
6.26144e-05
6.07034e-05
5.87109e-05
5.66486e-05
5.45133e-05
5.2314e-05
5.00485e-05
4.77254e-05
4.53426e-05
4.29113e-05
4.04264e-05
3.79012e-05
3.53316e-05
3.27301e-05
3.00935e-05
2.74342e-05
2.47507e-05
2.20564e-05
1.93503e-05
1.66445e-05
1.3944e-05
1.1255e-05
8.59014e-06
5.95264e-06
3.35641e-06
8.05647e-07
-1.68282e-06
-4.10578e-06
-6.44392e-06
-8.69684e-06
-1.08348e-05
-1.28647e-05
-1.47513e-05
-1.65094e-05
-1.80788e-05
-1.95061e-05
-2.07023e-05
-2.17398e-05
-2.2483e-05
-2.30581e-05
-2.32835e-05
-2.33394e-05
-2.30229e-05
-2.24692e-05
-2.15682e-05
-2.03734e-05
-1.88962e-05
-1.70281e-05
-1.50533e-05
-1.24692e-05
-1.00588e-05
-6.89332e-06
-4.03538e-06
-2.89807e-10
3.20125e-06
7.18952e-06
1.14118e-05
1.54164e-05
1.97499e-05
2.39426e-05
2.82795e-05
3.24773e-05
3.66172e-05
4.06489e-05
4.4509e-05
4.82716e-05
5.17748e-05
5.51809e-05
5.82601e-05
6.12421e-05
6.39033e-05
6.64142e-05
6.86415e-05
7.06668e-05
7.24671e-05
7.40477e-05
7.54152e-05
7.65744e-05
7.75299e-05
7.82922e-05
7.88622e-05
7.92548e-05
7.94709e-05
7.95213e-05
7.94112e-05
7.91486e-05
7.87392e-05
7.81909e-05
7.75066e-05
7.66959e-05
7.57622e-05
7.47094e-05
7.35471e-05
7.2273e-05
7.08995e-05
6.94232e-05
6.78561e-05
6.61934e-05
6.44472e-05
6.26128e-05
6.07028e-05
5.87113e-05
5.66501e-05
5.45159e-05
5.23176e-05
5.00531e-05
4.77311e-05
4.53494e-05
4.29192e-05
4.04354e-05
3.79112e-05
3.53427e-05
3.27422e-05
3.01066e-05
2.74484e-05
2.47659e-05
2.20725e-05
1.93675e-05
1.66626e-05
1.39631e-05
1.12749e-05
8.6109e-06
5.97421e-06
3.37876e-06
8.2872e-07
-1.65908e-06
-4.08143e-06
-6.419e-06
-8.67142e-06
-1.0809e-05
-1.28386e-05
-1.47249e-05
-1.64829e-05
-1.80523e-05
-1.94797e-05
-2.0676e-05
-2.17138e-05
-2.24577e-05
-2.30335e-05
-2.326e-05
-2.33167e-05
-2.30015e-05
-2.24492e-05
-2.15498e-05
-2.03567e-05
-1.88813e-05
-1.70149e-05
-1.50418e-05
-1.24598e-05
-1.00504e-05
-6.88655e-06
-4.03105e-06
-1.1958e-09
3.19756e-06
7.183e-06
1.14033e-05
1.54058e-05
1.97378e-05
2.39289e-05
2.82647e-05
3.24613e-05
3.66002e-05
4.06311e-05
4.44904e-05
4.82525e-05
5.1755e-05
5.51607e-05
5.82391e-05
6.12206e-05
6.38812e-05
6.63919e-05
6.8619e-05
7.06444e-05
7.24448e-05
7.40256e-05
7.53936e-05
7.65534e-05
7.75095e-05
7.82725e-05
7.88433e-05
7.92367e-05
7.94536e-05
7.9505e-05
7.93958e-05
7.91342e-05
7.87258e-05
7.81785e-05
7.74952e-05
7.66855e-05
7.57528e-05
7.47011e-05
7.35397e-05
7.22667e-05
7.08942e-05
6.94189e-05
6.78528e-05
6.61911e-05
6.44458e-05
6.26124e-05
6.07034e-05
5.87129e-05
5.66527e-05
5.45194e-05
5.23221e-05
5.00586e-05
4.77376e-05
4.53568e-05
4.29276e-05
4.04448e-05
3.79216e-05
3.5354e-05
3.27546e-05
3.01199e-05
2.74627e-05
2.47811e-05
2.20887e-05
1.93846e-05
1.66806e-05
1.3982e-05
1.12947e-05
8.63147e-06
5.99555e-06
3.40083e-06
8.51476e-07
-1.6357e-06
-4.05748e-06
-6.39454e-06
-8.64654e-06
-1.07837e-05
-1.28132e-05
-1.46993e-05
-1.64573e-05
-1.80268e-05
-1.94544e-05
-2.06511e-05
-2.16897e-05
-2.24343e-05
-2.30114e-05
-2.32389e-05
-2.3297e-05
-2.29831e-05
-2.24324e-05
-2.15346e-05
-2.03431e-05
-1.88696e-05
-1.70045e-05
-1.50335e-05
-1.24526e-05
-1.00453e-05
-6.88252e-06
-4.03082e-06
-2.5759e-09
3.191e-06
7.1733e-06
1.13927e-05
1.53923e-05
1.97234e-05
2.39132e-05
2.82485e-05
3.24444e-05
3.65827e-05
4.06131e-05
4.44719e-05
4.82337e-05
5.17356e-05
5.51411e-05
5.82185e-05
6.11997e-05
6.38594e-05
6.63698e-05
6.85965e-05
7.06218e-05
7.24223e-05
7.40033e-05
7.53717e-05
7.65319e-05
7.74886e-05
7.82523e-05
7.88239e-05
7.92181e-05
7.9436e-05
7.94884e-05
7.93802e-05
7.91196e-05
7.87122e-05
7.81661e-05
7.74838e-05
7.66752e-05
7.57436e-05
7.4693e-05
7.35328e-05
7.22608e-05
7.08895e-05
6.94153e-05
6.78502e-05
6.61895e-05
6.44454e-05
6.2613e-05
6.07051e-05
5.87157e-05
5.66565e-05
5.45243e-05
5.23281e-05
5.00657e-05
4.77458e-05
4.53661e-05
4.29379e-05
4.04562e-05
3.79341e-05
3.53676e-05
3.27692e-05
3.01356e-05
2.74794e-05
2.47989e-05
2.21076e-05
1.94044e-05
1.67014e-05
1.40038e-05
1.13174e-05
8.65502e-06
6.01993e-06
3.42599e-06
8.77329e-07
-1.60921e-06
-4.03043e-06
-6.36699e-06
-8.61865e-06
-1.07556e-05
-1.27849e-05
-1.46709e-05
-1.64292e-05
-1.79989e-05
-1.94272e-05
-2.06245e-05
-2.16642e-05
-2.24099e-05
-2.29887e-05
-2.32175e-05
-2.32776e-05
-2.29654e-05
-2.24167e-05
-2.15207e-05
-2.03311e-05
-1.88593e-05
-1.69955e-05
-1.50269e-05
-1.24465e-05
-1.0042e-05
-6.88045e-06
-4.03375e-06
-5.41453e-09
3.18168e-06
7.16008e-06
1.13791e-05
1.53755e-05
1.97057e-05
2.38942e-05
2.82293e-05
3.24246e-05
3.65623e-05
4.05925e-05
4.44508e-05
4.82126e-05
5.17138e-05
5.51192e-05
5.81955e-05
6.11763e-05
6.38349e-05
6.63449e-05
6.85711e-05
7.05962e-05
7.23967e-05
7.39779e-05
7.53467e-05
7.65074e-05
7.74648e-05
7.82294e-05
7.88018e-05
7.91971e-05
7.9416e-05
7.94695e-05
7.93625e-05
7.91031e-05
7.8697e-05
7.81521e-05
7.74712e-05
7.66639e-05
7.57336e-05
7.46843e-05
7.35254e-05
7.22547e-05
7.08847e-05
6.94118e-05
6.7848e-05
6.61887e-05
6.44458e-05
6.26147e-05
6.07082e-05
5.872e-05
5.66621e-05
5.45312e-05
5.23363e-05
5.00752e-05
4.77566e-05
4.53781e-05
4.29513e-05
4.04708e-05
3.795e-05
3.53848e-05
3.27877e-05
3.01554e-05
2.75005e-05
2.48211e-05
2.2131e-05
1.9429e-05
1.67272e-05
1.40306e-05
1.13453e-05
8.6839e-06
6.04972e-06
3.45663e-06
9.08722e-07
-1.57714e-06
-3.9978e-06
-6.33387e-06
-8.58526e-06
-1.0722e-05
-1.27513e-05
-1.46374e-05
-1.63962e-05
-1.79663e-05
-1.93955e-05
-2.05937e-05
-2.16352e-05
-2.23823e-05
-2.29634e-05
-2.31939e-05
-2.32566e-05
-2.29465e-05
-2.24003e-05
-2.15065e-05
-2.03191e-05
-1.88495e-05
-1.6987e-05
-1.50212e-05
-1.24411e-05
-1.004e-05
-6.87993e-06
-4.03932e-06
-1.08985e-08
3.16952e-06
7.14315e-06
1.1362e-05
1.53548e-05
1.96842e-05
2.38715e-05
2.82065e-05
3.24014e-05
3.65387e-05
4.05688e-05
4.44266e-05
4.81886e-05
5.16892e-05
5.50946e-05
5.81697e-05
6.11501e-05
6.38076e-05
6.63172e-05
6.85429e-05
7.05677e-05
7.23683e-05
7.39498e-05
7.5319e-05
7.64804e-05
7.74385e-05
7.8204e-05
7.87775e-05
7.91739e-05
7.93941e-05
7.94489e-05
7.93433e-05
7.90853e-05
7.86806e-05
7.81372e-05
7.74577e-05
7.6652e-05
7.57232e-05
7.46754e-05
7.3518e-05
7.22489e-05
7.08804e-05
6.94089e-05
6.78467e-05
6.61889e-05
6.44476e-05
6.26179e-05
6.07129e-05
5.87262e-05
5.66699e-05
5.45404e-05
5.23471e-05
5.00874e-05
4.77703e-05
4.53934e-05
4.29681e-05
4.0489e-05
3.79697e-05
3.5406e-05
3.28103e-05
3.01794e-05
2.75259e-05
2.48479e-05
2.21592e-05
1.94585e-05
1.67579e-05
1.40625e-05
1.13782e-05
8.71794e-06
6.08472e-06
3.49251e-06
9.4535e-07
-1.53984e-06
-3.95998e-06
-6.29564e-06
-8.54686e-06
-1.06835e-05
-1.27129e-05
-1.45994e-05
-1.63589e-05
-1.79297e-05
-1.93601e-05
-2.05595e-05
-2.16032e-05
-2.23522e-05
-2.29363e-05
-2.31689e-05
-2.32347e-05
-2.29272e-05
-2.23839e-05
-2.14927e-05
-2.03077e-05
-1.88405e-05
-1.69796e-05
-1.50169e-05
-1.24371e-05
-1.00397e-05
-6.88155e-06
-4.04787e-06
-2.01338e-08
3.15417e-06
7.12206e-06
1.13408e-05
1.533e-05
1.96586e-05
2.38448e-05
2.818e-05
3.23747e-05
3.65117e-05
4.05418e-05
4.43995e-05
4.81618e-05
5.16621e-05
5.50677e-05
5.81416e-05
6.11217e-05
6.37781e-05
6.62874e-05
6.85126e-05
7.05372e-05
7.2338e-05
7.39198e-05
7.52895e-05
7.64517e-05
7.74107e-05
7.81773e-05
7.8752e-05
7.91497e-05
7.93712e-05
7.94274e-05
7.93234e-05
7.9067e-05
7.86639e-05
7.81222e-05
7.74444e-05
7.66403e-05
7.57132e-05
7.46671e-05
7.35115e-05
7.2244e-05
7.08772e-05
6.94074e-05
6.78469e-05
6.61907e-05
6.44511e-05
6.26232e-05
6.07198e-05
5.87348e-05
5.66801e-05
5.45524e-05
5.23607e-05
5.01027e-05
4.77872e-05
4.54119e-05
4.29883e-05
4.05109e-05
3.79932e-05
3.5431e-05
3.28369e-05
3.02075e-05
2.75555e-05
2.4879e-05
2.21916e-05
1.94923e-05
1.6793e-05
1.40989e-05
1.14157e-05
8.75648e-06
6.1242e-06
3.53283e-06
9.86366e-07
-1.49823e-06
-3.91795e-06
-6.25331e-06
-8.50453e-06
-1.06412e-05
-1.2671e-05
-1.4558e-05
-1.63185e-05
-1.78902e-05
-1.93223e-05
-2.05234e-05
-2.15697e-05
-2.23212e-05
-2.29087e-05
-2.31438e-05
-2.32131e-05
-2.29087e-05
-2.23686e-05
-2.14803e-05
-2.02982e-05
-1.88336e-05
-1.69744e-05
-1.50149e-05
-1.24354e-05
-1.0042e-05
-6.88606e-06
-4.0599e-06
-3.41706e-08
3.13524e-06
7.09641e-06
1.13149e-05
1.53006e-05
1.96285e-05
2.3814e-05
2.81496e-05
3.23443e-05
3.64814e-05
4.05118e-05
4.43696e-05
4.81325e-05
5.16326e-05
5.50387e-05
5.81115e-05
6.10915e-05
6.37469e-05
6.6256e-05
6.84809e-05
7.05054e-05
7.23064e-05
7.38887e-05
7.52591e-05
7.64222e-05
7.73822e-05
7.81501e-05
7.8726e-05
7.91252e-05
7.93483e-05
7.94061e-05
7.93037e-05
7.90491e-05
7.86478e-05
7.81078e-05
7.74319e-05
7.66296e-05
7.57044e-05
7.46601e-05
7.35064e-05
7.22407e-05
7.08757e-05
6.94078e-05
6.78492e-05
6.61948e-05
6.4457e-05
6.26309e-05
6.07294e-05
5.87461e-05
5.66933e-05
5.45673e-05
5.23774e-05
5.01212e-05
4.78076e-05
4.5434e-05
4.30121e-05
4.05364e-05
3.80204e-05
3.54598e-05
3.28674e-05
3.02396e-05
2.75892e-05
2.49141e-05
2.22282e-05
1.95302e-05
1.68322e-05
1.41393e-05
1.14572e-05
8.79899e-06
6.16757e-06
3.57697e-06
1.03108e-06
-1.45305e-06
-3.87248e-06
-6.20771e-06
-8.45913e-06
-1.05961e-05
-1.26265e-05
-1.45143e-05
-1.62761e-05
-1.78491e-05
-1.92832e-05
-2.04864e-05
-2.15359e-05
-2.22902e-05
-2.28815e-05
-2.31195e-05
-2.31928e-05
-2.28919e-05
-2.23555e-05
-2.14704e-05
-2.02913e-05
-1.88295e-05
-1.69722e-05
-1.5016e-05
-1.2437e-05
-1.00475e-05
-6.89421e-06
-4.07587e-06
-5.39182e-08
3.11243e-06
7.06605e-06
1.12835e-05
1.52664e-05
1.95937e-05
2.37788e-05
2.81149e-05
3.23102e-05
3.64477e-05
4.04787e-05
4.4337e-05
4.81008e-05
5.1601e-05
5.50077e-05
5.80799e-05
6.10598e-05
6.37146e-05
6.62235e-05
6.84484e-05
7.04728e-05
7.22744e-05
7.38572e-05
7.52285e-05
7.63926e-05
7.73539e-05
7.81232e-05
7.87005e-05
7.91013e-05
7.93261e-05
7.93857e-05
7.92852e-05
7.90324e-05
7.8633e-05
7.8095e-05
7.7421e-05
7.66207e-05
7.56975e-05
7.46551e-05
7.35034e-05
7.22396e-05
7.08766e-05
6.94106e-05
6.7854e-05
6.62016e-05
6.44658e-05
6.26415e-05
6.0742e-05
5.87606e-05
5.67097e-05
5.45856e-05
5.23976e-05
5.01433e-05
4.78315e-05
4.54597e-05
4.30396e-05
4.05657e-05
3.80514e-05
3.54925e-05
3.29018e-05
3.02756e-05
2.76267e-05
2.49531e-05
2.22687e-05
1.9572e-05
1.68753e-05
1.41834e-05
1.15024e-05
8.84502e-06
6.21435e-06
3.62437e-06
1.07891e-06
-1.40493e-06
-3.82427e-06
-6.15959e-06
-8.41144e-06
-1.0549e-05
-1.25802e-05
-1.44692e-05
-1.62326e-05
-1.78074e-05
-1.92438e-05
-2.04497e-05
-2.15026e-05
-2.22602e-05
-2.28557e-05
-2.30972e-05
-2.31749e-05
-2.28779e-05
-2.23454e-05
-2.14639e-05
-2.0288e-05
-1.88291e-05
-1.69738e-05
-1.5021e-05
-1.24427e-05
-1.00568e-05
-6.90667e-06
-4.09627e-06
-8.01042e-08
3.08504e-06
7.03051e-06
1.12463e-05
1.52271e-05
1.95538e-05
2.37391e-05
2.80759e-05
3.22721e-05
3.64104e-05
4.04424e-05
4.43019e-05
4.80668e-05
5.15678e-05
5.49752e-05
5.80472e-05
6.10271e-05
6.36816e-05
6.61906e-05
6.84157e-05
7.04403e-05
7.22425e-05
7.38262e-05
7.51985e-05
7.63639e-05
7.73265e-05
7.80973e-05
7.86763e-05
7.90789e-05
7.93055e-05
7.9367e-05
7.92684e-05
7.90176e-05
7.86203e-05
7.80843e-05
7.74125e-05
7.66142e-05
7.56931e-05
7.46527e-05
7.3503e-05
7.22414e-05
7.08804e-05
6.94165e-05
6.78619e-05
6.62115e-05
6.44778e-05
6.26555e-05
6.0758e-05
5.87786e-05
5.67297e-05
5.46076e-05
5.24215e-05
5.01691e-05
4.78592e-05
4.54892e-05
4.3071e-05
4.05988e-05
3.80863e-05
3.55292e-05
3.29401e-05
3.03154e-05
2.76681e-05
2.49959e-05
2.23128e-05
1.96174e-05
1.69217e-05
1.42309e-05
1.15507e-05
8.89411e-06
6.26402e-06
3.6745e-06
1.12925e-06
-1.3545e-06
-3.77398e-06
-6.10964e-06
-8.36219e-06
-1.05006e-05
-1.2533e-05
-1.44235e-05
-1.61891e-05
-1.7766e-05
-1.92051e-05
-2.0414e-05
-2.14707e-05
-2.22323e-05
-2.28323e-05
-2.30779e-05
-2.31601e-05
-2.28676e-05
-2.23393e-05
-2.14616e-05
-2.02891e-05
-1.88333e-05
-1.69803e-05
-1.50305e-05
-1.24534e-05
-1.00708e-05
-6.92415e-06
-4.12164e-06
-1.13205e-07
3.05264e-06
6.98976e-06
1.12026e-05
1.51823e-05
1.95086e-05
2.36945e-05
2.80324e-05
3.223e-05
3.63698e-05
4.0403e-05
4.42645e-05
4.80309e-05
5.15333e-05
5.49417e-05
5.80139e-05
6.09939e-05
6.36487e-05
6.61579e-05
6.83835e-05
7.04085e-05
7.22116e-05
7.37964e-05
7.51699e-05
7.63367e-05
7.73009e-05
7.80735e-05
7.86542e-05
7.90587e-05
7.92873e-05
7.93508e-05
7.92543e-05
7.90056e-05
7.86104e-05
7.80766e-05
7.74069e-05
7.66108e-05
7.56918e-05
7.46535e-05
7.3506e-05
7.22465e-05
7.08877e-05
6.94259e-05
6.78734e-05
6.62252e-05
6.44935e-05
6.26733e-05
6.07779e-05
5.88005e-05
5.67535e-05
5.46334e-05
5.24493e-05
5.01989e-05
4.78909e-05
4.55227e-05
4.31064e-05
4.06359e-05
3.81252e-05
3.55696e-05
3.29821e-05
3.0359e-05
2.77131e-05
2.50422e-05
2.23603e-05
1.9666e-05
1.69714e-05
1.42814e-05
1.16019e-05
8.94582e-06
6.31611e-06
3.7268e-06
1.18153e-06
-1.30238e-06
-3.72228e-06
-6.05858e-06
-8.31214e-06
-1.04517e-05
-1.24857e-05
-1.43782e-05
-1.61464e-05
-1.77259e-05
-1.91679e-05
-2.03803e-05
-2.14412e-05
-2.22073e-05
-2.28122e-05
-2.30624e-05
-2.31495e-05
-2.28619e-05
-2.2338e-05
-2.14645e-05
-2.02956e-05
-1.8843e-05
-1.69924e-05
-1.50454e-05
-1.24701e-05
-1.009e-05
-6.94733e-06
-4.15261e-06
-1.53435e-07
3.01423e-06
6.9433e-06
1.11518e-05
1.51319e-05
1.9458e-05
2.36452e-05
2.79844e-05
3.2184e-05
3.63258e-05
4.03609e-05
4.42249e-05
4.79933e-05
5.14979e-05
5.49075e-05
5.79806e-05
6.09611e-05
6.36164e-05
6.6126e-05
6.83525e-05
7.03783e-05
7.21826e-05
7.37686e-05
7.51436e-05
7.6312e-05
7.7278e-05
7.80524e-05
7.86351e-05
7.90416e-05
7.92723e-05
7.9338e-05
7.92436e-05
7.89971e-05
7.86041e-05
7.80726e-05
7.7405e-05
7.6611e-05
7.56942e-05
7.46582e-05
7.35129e-05
7.22556e-05
7.08989e-05
6.94393e-05
6.7889e-05
6.62429e-05
6.45133e-05
6.26952e-05
6.08019e-05
5.88265e-05
5.67816e-05
5.46635e-05
5.24813e-05
5.02328e-05
4.79267e-05
4.55604e-05
4.31458e-05
4.06771e-05
3.81679e-05
3.5614e-05
3.3028e-05
3.04063e-05
2.77616e-05
2.50919e-05
2.24111e-05
1.97177e-05
1.70239e-05
1.43345e-05
1.16555e-05
8.99972e-06
6.37014e-06
3.78078e-06
1.2352e-06
-1.24918e-06
-3.66981e-06
-6.00709e-06
-8.26197e-06
-1.04031e-05
-1.24393e-05
-1.43344e-05
-1.61053e-05
-1.76878e-05
-1.91331e-05
-2.03497e-05
-2.1415e-05
-2.21863e-05
-2.27963e-05
-2.30518e-05
-2.3144e-05
-2.28618e-05
-2.23426e-05
-2.14735e-05
-2.03084e-05
-1.88589e-05
-1.7011e-05
-1.50664e-05
-1.24935e-05
-1.01153e-05
-6.97689e-06
-4.18989e-06
-2.00796e-07
2.96928e-06
6.89115e-06
1.10936e-05
1.50755e-05
1.94016e-05
2.3591e-05
2.79318e-05
3.21341e-05
3.62787e-05
4.03163e-05
4.41837e-05
4.79545e-05
5.1462e-05
5.48731e-05
5.79481e-05
6.09292e-05
6.35856e-05
6.60958e-05
6.83237e-05
7.03505e-05
7.21561e-05
7.37437e-05
7.51204e-05
7.62907e-05
7.72585e-05
7.8035e-05
7.86197e-05
7.90284e-05
7.92613e-05
7.93292e-05
7.92371e-05
7.89928e-05
7.86021e-05
7.80727e-05
7.74074e-05
7.66157e-05
7.57011e-05
7.46674e-05
7.35243e-05
7.22692e-05
7.09147e-05
6.94573e-05
6.79091e-05
6.62652e-05
6.45377e-05
6.27216e-05
6.08304e-05
5.88571e-05
5.68141e-05
5.4698e-05
5.25177e-05
5.02711e-05
4.79668e-05
4.56022e-05
4.31894e-05
4.07223e-05
3.82146e-05
3.56621e-05
3.30775e-05
3.04571e-05
2.78135e-05
2.51448e-05
2.24649e-05
1.97722e-05
1.70789e-05
1.439e-05
1.17111e-05
9.05538e-06
6.42563e-06
3.83591e-06
1.2897e-06
-1.1955e-06
-3.61719e-06
-5.95584e-06
-8.21242e-06
-1.03558e-05
-1.23946e-05
-1.42926e-05
-1.60666e-05
-1.76527e-05
-1.91017e-05
-2.0323e-05
-2.13931e-05
-2.21702e-05
-2.27855e-05
-2.3047e-05
-2.31445e-05
-2.28682e-05
-2.23539e-05
-2.14896e-05
-2.03282e-05
-1.8882e-05
-1.7037e-05
-1.50942e-05
-1.25245e-05
-1.01471e-05
-7.01345e-06
-4.23425e-06
-2.55074e-07
2.91668e-06
6.83282e-06
1.10277e-05
1.5013e-05
1.93396e-05
2.35319e-05
2.78749e-05
3.20805e-05
3.62287e-05
4.02694e-05
4.41412e-05
4.79149e-05
5.14263e-05
5.48392e-05
5.79169e-05
6.08988e-05
6.35571e-05
6.60682e-05
6.82976e-05
7.03258e-05
7.21331e-05
7.37226e-05
7.51011e-05
7.62734e-05
7.72434e-05
7.80221e-05
7.8609e-05
7.90199e-05
7.9255e-05
7.93253e-05
7.92354e-05
7.89934e-05
7.86049e-05
7.80778e-05
7.74149e-05
7.66254e-05
7.57131e-05
7.46816e-05
7.35407e-05
7.22878e-05
7.09355e-05
6.94802e-05
6.79342e-05
6.62924e-05
6.4567e-05
6.2753e-05
6.08638e-05
5.88925e-05
5.68514e-05
5.47372e-05
5.25588e-05
5.0314e-05
4.80113e-05
4.56485e-05
4.32372e-05
4.07716e-05
3.82653e-05
3.57141e-05
3.31306e-05
3.05113e-05
2.78687e-05
2.52008e-05
2.25214e-05
1.98292e-05
1.71362e-05
1.44474e-05
1.17684e-05
9.11239e-06
6.48213e-06
3.89169e-06
1.34449e-06
-1.1419e-06
-3.56506e-06
-5.90548e-06
-8.16431e-06
-1.03105e-05
-1.23524e-05
-1.42536e-05
-1.60311e-05
-1.76214e-05
-1.90744e-05
-2.03011e-05
-2.13762e-05
-2.216e-05
-2.27808e-05
-2.3049e-05
-2.3152e-05
-2.28821e-05
-2.23728e-05
-2.15135e-05
-2.03561e-05
-1.89131e-05
-1.70713e-05
-1.51297e-05
-1.25639e-05
-1.01863e-05
-7.05764e-06
-4.28647e-06
-3.16046e-07
2.85585e-06
6.76824e-06
1.09538e-05
1.49444e-05
1.92716e-05
2.34679e-05
2.78136e-05
3.20234e-05
3.61761e-05
4.02207e-05
4.40978e-05
4.78751e-05
5.13913e-05
5.48064e-05
5.78877e-05
6.08706e-05
6.35315e-05
6.60437e-05
6.82752e-05
7.03052e-05
7.21144e-05
7.3706e-05
7.50866e-05
7.62612e-05
7.72334e-05
7.80145e-05
7.86036e-05
7.90169e-05
7.92543e-05
7.93269e-05
7.92393e-05
7.89997e-05
7.86135e-05
7.80887e-05
7.7428e-05
7.66408e-05
7.57307e-05
7.47014e-05
7.35627e-05
7.2312e-05
7.09618e-05
6.95087e-05
6.79648e-05
6.6325e-05
6.46016e-05
6.27897e-05
6.09023e-05
5.8933e-05
5.68937e-05
5.47814e-05
5.26047e-05
5.03616e-05
4.80605e-05
4.56992e-05
4.32893e-05
4.0825e-05
3.83199e-05
3.57699e-05
3.31874e-05
3.05689e-05
2.79269e-05
2.52596e-05
2.25805e-05
1.98886e-05
1.71955e-05
1.45064e-05
1.1827e-05
9.17032e-06
6.53918e-06
3.94763e-06
1.39905e-06
-1.08897e-06
-3.514e-06
-5.85666e-06
-8.11846e-06
-1.02681e-05
-1.23132e-05
-1.42182e-05
-1.59998e-05
-1.75948e-05
-1.90522e-05
-2.02849e-05
-2.13654e-05
-2.21563e-05
-2.2783e-05
-2.30588e-05
-2.31672e-05
-2.29043e-05
-2.24002e-05
-2.15463e-05
-2.03929e-05
-1.8953e-05
-1.71146e-05
-1.51735e-05
-1.26125e-05
-1.02334e-05
-7.11004e-06
-4.34735e-06
-3.83415e-07
2.78587e-06
6.69694e-06
1.08718e-05
1.48694e-05
1.91977e-05
2.3399e-05
2.7748e-05
3.1963e-05
3.61212e-05
4.01705e-05
4.40541e-05
4.78355e-05
5.13575e-05
5.47753e-05
5.78611e-05
6.08455e-05
6.35096e-05
6.60232e-05
6.82573e-05
7.02894e-05
7.21009e-05
7.36949e-05
7.50778e-05
7.62549e-05
7.72294e-05
7.80129e-05
7.86045e-05
7.90201e-05
7.926e-05
7.9335e-05
7.92497e-05
7.90124e-05
7.86285e-05
7.81059e-05
7.74475e-05
7.66625e-05
7.57546e-05
7.47275e-05
7.35909e-05
7.23423e-05
7.09942e-05
6.95432e-05
6.80012e-05
6.63635e-05
6.46419e-05
6.28319e-05
6.09464e-05
5.89789e-05
5.69413e-05
5.48307e-05
5.26556e-05
5.04141e-05
4.81144e-05
4.57545e-05
4.33458e-05
4.08827e-05
3.83786e-05
3.58295e-05
3.32476e-05
3.06298e-05
2.79882e-05
2.53212e-05
2.2642e-05
1.995e-05
1.72565e-05
1.45668e-05
1.18866e-05
9.22878e-06
6.59636e-06
4.00325e-06
1.45284e-06
-1.03726e-06
-3.46461e-06
-5.81023e-06
-8.07556e-06
-1.0229e-05
-1.22779e-05
-1.41873e-05
-1.59732e-05
-1.75736e-05
-1.90359e-05
-2.02752e-05
-2.13613e-05
-2.21603e-05
-2.2793e-05
-2.3077e-05
-2.31912e-05
-2.29356e-05
-2.2437e-05
-2.15887e-05
-2.04394e-05
-1.90026e-05
-1.71677e-05
-1.52263e-05
-1.26709e-05
-1.02892e-05
-7.17122e-06
-4.41762e-06
-4.57066e-07
2.70623e-06
6.61869e-06
1.07816e-05
1.4788e-05
1.91179e-05
2.33254e-05
2.76785e-05
3.18995e-05
3.60643e-05
4.01193e-05
4.40104e-05
4.77968e-05
5.13257e-05
5.47466e-05
5.7838e-05
6.08241e-05
6.34923e-05
6.60076e-05
6.82448e-05
7.02794e-05
7.20935e-05
7.36901e-05
7.50756e-05
7.62553e-05
7.72324e-05
7.80184e-05
7.86125e-05
7.90306e-05
7.92728e-05
7.93502e-05
7.92672e-05
7.90323e-05
7.86507e-05
7.81303e-05
7.74741e-05
7.66912e-05
7.57854e-05
7.47604e-05
7.36258e-05
7.23793e-05
7.1033e-05
6.95841e-05
6.8044e-05
6.64082e-05
6.46884e-05
6.28802e-05
6.09964e-05
5.90306e-05
5.69946e-05
5.48855e-05
5.27118e-05
5.04717e-05
4.81733e-05
4.58146e-05
4.34069e-05
4.09448e-05
3.84413e-05
3.58929e-05
3.33114e-05
3.0694e-05
2.80523e-05
2.53853e-05
2.27058e-05
2.00132e-05
1.73189e-05
1.46282e-05
1.19467e-05
9.2874e-06
6.65323e-06
4.05809e-06
1.50539e-06
-9.87289e-07
-3.41745e-06
-5.76686e-06
-8.03633e-06
-1.0194e-05
-1.22472e-05
-1.41615e-05
-1.59522e-05
-1.75586e-05
-1.90262e-05
-2.02728e-05
-2.13649e-05
-2.21726e-05
-2.28116e-05
-2.31047e-05
-2.32247e-05
-2.29771e-05
-2.2484e-05
-2.16415e-05
-2.04964e-05
-1.90626e-05
-1.72314e-05
-1.5289e-05
-1.27399e-05
-1.03541e-05
-7.2417e-06
-4.49795e-06
-5.3718e-07
2.61641e-06
6.53316e-06
1.06831e-05
1.47001e-05
1.90321e-05
2.32472e-05
2.7605e-05
3.18332e-05
3.60057e-05
4.00674e-05
4.39673e-05
4.77595e-05
5.12964e-05
5.4721e-05
5.7819e-05
6.08072e-05
6.34802e-05
6.59976e-05
6.82384e-05
7.02759e-05
7.20929e-05
7.36925e-05
7.50808e-05
7.62633e-05
7.72431e-05
7.80318e-05
7.86284e-05
7.9049e-05
7.92937e-05
7.93735e-05
7.92928e-05
7.90601e-05
7.86807e-05
7.81624e-05
7.75084e-05
7.67275e-05
7.58237e-05
7.48008e-05
7.3668e-05
7.24235e-05
7.1079e-05
6.96319e-05
6.80935e-05
6.64596e-05
6.47414e-05
6.29349e-05
6.10526e-05
5.90884e-05
5.70537e-05
5.49461e-05
5.27736e-05
5.05347e-05
4.82372e-05
4.58795e-05
4.34725e-05
4.10111e-05
3.85081e-05
3.59601e-05
3.33787e-05
3.07612e-05
2.81193e-05
2.54518e-05
2.27715e-05
2.0078e-05
1.73826e-05
1.46903e-05
1.20072e-05
9.34582e-06
6.70942e-06
4.11174e-06
1.55625e-06
-9.39536e-07
-3.37329e-06
-5.72716e-06
-8.00119e-06
-1.01636e-05
-1.22216e-05
-1.41414e-05
-1.59375e-05
-1.75506e-05
-1.90239e-05
-2.02784e-05
-2.13769e-05
-2.2194e-05
-2.28396e-05
-2.31425e-05
-2.32685e-05
-2.30293e-05
-2.2542e-05
-2.17056e-05
-2.05647e-05
-1.91337e-05
-1.73064e-05
-1.53621e-05
-1.282e-05
-1.04289e-05
-7.32202e-06
-4.58888e-06
-6.24085e-07
2.51615e-06
6.4399e-06
1.05764e-05
1.46057e-05
1.89402e-05
2.31643e-05
2.75277e-05
3.17644e-05
3.59457e-05
4.00153e-05
4.39252e-05
4.77242e-05
5.12703e-05
5.46991e-05
5.78049e-05
6.07957e-05
6.34743e-05
6.59941e-05
6.8239e-05
7.02799e-05
7.21002e-05
7.3703e-05
7.50943e-05
7.62798e-05
7.72625e-05
7.80539e-05
7.86532e-05
7.90763e-05
7.93234e-05
7.94056e-05
7.93271e-05
7.90966e-05
7.87193e-05
7.82031e-05
7.75511e-05
7.67722e-05
7.58702e-05
7.48491e-05
7.37181e-05
7.24754e-05
7.11326e-05
6.96873e-05
6.81504e-05
6.65181e-05
6.48014e-05
6.29964e-05
6.11154e-05
5.91526e-05
5.71191e-05
5.50126e-05
5.28411e-05
5.06032e-05
4.83065e-05
4.59495e-05
4.35429e-05
4.1082e-05
3.85791e-05
3.60311e-05
3.34494e-05
3.08316e-05
2.81889e-05
2.55207e-05
2.28392e-05
2.01444e-05
1.74472e-05
1.4753e-05
1.20676e-05
9.40374e-06
6.76459e-06
4.16381e-06
1.605e-06
-8.94437e-07
-3.33271e-06
-5.69173e-06
-7.97061e-06
-1.01385e-05
-1.22018e-05
-1.41277e-05
-1.59297e-05
-1.75501e-05
-1.90296e-05
-2.02927e-05
-2.1398e-05
-2.22252e-05
-2.28777e-05
-2.31912e-05
-2.33234e-05
-2.30932e-05
-2.26117e-05
-2.17817e-05
-2.0645e-05
-1.92167e-05
-1.73933e-05
-1.54463e-05
-1.29118e-05
-1.05141e-05
-7.41268e-06
-4.69081e-06
-7.18463e-07
2.4054e-06
6.33846e-06
1.04614e-05
1.45045e-05
1.88423e-05
2.30768e-05
2.74469e-05
3.16932e-05
3.58846e-05
3.99634e-05
4.38846e-05
4.76915e-05
5.12479e-05
5.46818e-05
5.77964e-05
6.07902e-05
6.34753e-05
6.59979e-05
6.82476e-05
7.02923e-05
7.21161e-05
7.37225e-05
7.51171e-05
7.63058e-05
7.72915e-05
7.80857e-05
7.86877e-05
7.91133e-05
7.93628e-05
7.94473e-05
7.9371e-05
7.91427e-05
7.87674e-05
7.8253e-05
7.76029e-05
7.68258e-05
7.59255e-05
7.49062e-05
7.37767e-05
7.25357e-05
7.11943e-05
6.97506e-05
6.82151e-05
6.65842e-05
6.48687e-05
6.30652e-05
6.11852e-05
5.92235e-05
5.7191e-05
5.50855e-05
5.29148e-05
5.06776e-05
4.83813e-05
4.60248e-05
4.36183e-05
4.11575e-05
3.86543e-05
3.61061e-05
3.35237e-05
3.09052e-05
2.82613e-05
2.55918e-05
2.29086e-05
2.0212e-05
1.75126e-05
1.4816e-05
1.21279e-05
9.46089e-06
6.81844e-06
4.214e-06
1.65131e-06
-8.52556e-07
-3.29612e-06
-5.66091e-06
-7.94505e-06
-1.01189e-05
-1.21882e-05
-1.4121e-05
-1.59292e-05
-1.75577e-05
-1.90439e-05
-2.03163e-05
-2.14288e-05
-2.22668e-05
-2.29267e-05
-2.32515e-05
-2.33902e-05
-2.31693e-05
-2.26939e-05
-2.18705e-05
-2.07381e-05
-1.93124e-05
-1.74928e-05
-1.55424e-05
-1.30159e-05
-1.06103e-05
-7.51422e-06
-4.80403e-06
-8.21299e-07
2.28409e-06
6.22818e-06
1.03382e-05
1.43964e-05
1.87382e-05
2.29847e-05
2.73625e-05
3.16199e-05
3.58227e-05
3.99121e-05
4.3846e-05
4.76618e-05
5.12299e-05
5.46696e-05
5.77941e-05
6.07916e-05
6.34839e-05
6.60099e-05
6.82649e-05
7.03138e-05
7.21416e-05
7.37519e-05
7.515e-05
7.6342e-05
7.73309e-05
7.81279e-05
7.87327e-05
7.91608e-05
7.94128e-05
7.94995e-05
7.94253e-05
7.9199e-05
7.88256e-05
7.8313e-05
7.76646e-05
7.68891e-05
7.59903e-05
7.49726e-05
7.38444e-05
7.26049e-05
7.12648e-05
6.98224e-05
6.8288e-05
6.66585e-05
6.49439e-05
6.31415e-05
6.12624e-05
5.93017e-05
5.72698e-05
5.5165e-05
5.29947e-05
5.0758e-05
4.84618e-05
4.61055e-05
4.36987e-05
4.12378e-05
3.87339e-05
3.61851e-05
3.36016e-05
3.09819e-05
2.83364e-05
2.56653e-05
2.29799e-05
2.02809e-05
1.75788e-05
1.48791e-05
1.21878e-05
9.5171e-06
6.87076e-06
4.26206e-06
1.69494e-06
-8.14414e-07
-3.26394e-06
-5.63485e-06
-7.92489e-06
-1.01055e-05
-1.21814e-05
-1.41215e-05
-1.59367e-05
-1.75739e-05
-1.90674e-05
-2.03497e-05
-2.14699e-05
-2.23194e-05
-2.29871e-05
-2.3324e-05
-2.34694e-05
-2.32584e-05
-2.27894e-05
-2.19728e-05
-2.08447e-05
-1.94213e-05
-1.76057e-05
-1.5651e-05
-1.31328e-05
-1.07181e-05
-7.62718e-06
-4.92866e-06
-9.33923e-07
2.15244e-06
6.10862e-06
1.02066e-05
1.42811e-05
1.86279e-05
2.2888e-05
2.72747e-05
3.15446e-05
3.57602e-05
3.98618e-05
4.38097e-05
4.76357e-05
5.12168e-05
5.46632e-05
5.77988e-05
6.08006e-05
6.3501e-05
6.60309e-05
6.82918e-05
7.03455e-05
7.21776e-05
7.37922e-05
7.5194e-05
7.63896e-05
7.73817e-05
7.81817e-05
7.87893e-05
7.92199e-05
7.94742e-05
7.95631e-05
7.94909e-05
7.92664e-05
7.88947e-05
7.83837e-05
7.77369e-05
7.69628e-05
7.60653e-05
7.5049e-05
7.39219e-05
7.26837e-05
7.13446e-05
6.99034e-05
6.83699e-05
6.67413e-05
6.50275e-05
6.3226e-05
6.13474e-05
5.93874e-05
5.73559e-05
5.52516e-05
5.30814e-05
5.08448e-05
4.85484e-05
4.61919e-05
4.37845e-05
4.1323e-05
3.88181e-05
3.62682e-05
3.36832e-05
3.10619e-05
2.84143e-05
2.5741e-05
2.30529e-05
2.03511e-05
1.76457e-05
1.49424e-05
1.22473e-05
9.57226e-06
6.92143e-06
4.30786e-06
1.73566e-06
-7.80186e-07
-3.23645e-06
-5.61382e-06
-7.91039e-06
-1.00984e-05
-1.21815e-05
-1.41297e-05
-1.59525e-05
-1.7599e-05
-1.91005e-05
-2.03934e-05
-2.15219e-05
-2.23836e-05
-2.30596e-05
-2.34093e-05
-2.35619e-05
-2.33612e-05
-2.28987e-05
-2.20891e-05
-2.09654e-05
-1.95442e-05
-1.77325e-05
-1.57729e-05
-1.32632e-05
-1.08382e-05
-7.75212e-06
-5.06477e-06
-1.05776e-06
2.01042e-06
5.97904e-06
1.00665e-05
1.41585e-05
1.8511e-05
2.27866e-05
2.71834e-05
3.14675e-05
3.56975e-05
3.98127e-05
4.37762e-05
4.76137e-05
5.12091e-05
5.46633e-05
5.78112e-05
6.08181e-05
6.35274e-05
6.60618e-05
6.83291e-05
7.03882e-05
7.2225e-05
7.38441e-05
7.525e-05
7.64493e-05
7.74448e-05
7.82478e-05
7.88583e-05
7.92913e-05
7.95479e-05
7.96389e-05
7.95685e-05
7.93458e-05
7.89757e-05
7.84661e-05
7.78206e-05
7.70476e-05
7.61513e-05
7.51361e-05
7.40099e-05
7.27728e-05
7.14344e-05
6.99941e-05
6.84611e-05
6.68334e-05
6.512e-05
6.33191e-05
6.14407e-05
5.94812e-05
5.74498e-05
5.53455e-05
5.31751e-05
5.09383e-05
4.86414e-05
4.62844e-05
4.3876e-05
4.14135e-05
3.89071e-05
3.63557e-05
3.37687e-05
3.11454e-05
2.84952e-05
2.58192e-05
2.31278e-05
2.04227e-05
1.77134e-05
1.50059e-05
1.23063e-05
9.62637e-06
6.97042e-06
4.35134e-06
1.77297e-06
-7.50017e-07
-3.21342e-06
-5.59796e-06
-7.90175e-06
-1.00978e-05
-1.21888e-05
-1.41459e-05
-1.59768e-05
-1.76335e-05
-1.91436e-05
-2.04478e-05
-2.15852e-05
-2.24598e-05
-2.31447e-05
-2.35079e-05
-2.36681e-05
-2.34783e-05
-2.30225e-05
-2.22202e-05
-2.11011e-05
-1.96818e-05
-1.78739e-05
-1.59087e-05
-1.34076e-05
-1.09713e-05
-7.88968e-06
-5.2124e-06
-1.19444e-06
1.85817e-06
5.83897e-06
9.91753e-06
1.4028e-05
1.83876e-05
2.26803e-05
2.70887e-05
3.13886e-05
3.56345e-05
3.97651e-05
4.37458e-05
4.75964e-05
5.12074e-05
5.46705e-05
5.78318e-05
6.08447e-05
6.35638e-05
6.61033e-05
6.83779e-05
7.04428e-05
7.22848e-05
7.39088e-05
7.53189e-05
7.65222e-05
7.75213e-05
7.83273e-05
7.89407e-05
7.93761e-05
7.9635e-05
7.97279e-05
7.96592e-05
7.9438e-05
7.90693e-05
7.85608e-05
7.79165e-05
7.71445e-05
7.6249e-05
7.52346e-05
7.41091e-05
7.28726e-05
7.15347e-05
7.0095e-05
6.85624e-05
6.69351e-05
6.52219e-05
6.34213e-05
6.15429e-05
5.95834e-05
5.75518e-05
5.54473e-05
5.32764e-05
5.10389e-05
4.87411e-05
4.63832e-05
4.39734e-05
4.15095e-05
3.90012e-05
3.64479e-05
3.38584e-05
3.12325e-05
2.85792e-05
2.59e-05
2.32049e-05
2.04957e-05
1.7782e-05
1.50697e-05
1.2365e-05
9.67951e-06
7.01781e-06
4.39255e-06
1.80689e-06
-7.24055e-07
-3.19488e-06
-5.58735e-06
-7.89904e-06
-1.01039e-05
-1.22035e-05
-1.41701e-05
-1.601e-05
-1.76776e-05
-1.9197e-05
-2.05132e-05
-2.16602e-05
-2.25485e-05
-2.3243e-05
-2.36205e-05
-2.37887e-05
-2.36102e-05
-2.31617e-05
-2.23669e-05
-2.12523e-05
-1.98349e-05
-1.80307e-05
-1.60593e-05
-1.35667e-05
-1.11181e-05
-8.04052e-06
-5.37162e-06
-1.34544e-06
1.69541e-06
5.6877e-06
9.75937e-06
1.38894e-05
1.82571e-05
2.25688e-05
2.69905e-05
3.1308e-05
3.55714e-05
3.97193e-05
4.37188e-05
4.7584e-05
5.12122e-05
5.46856e-05
5.78615e-05
6.08812e-05
6.3611e-05
6.61564e-05
6.84389e-05
7.05101e-05
7.23578e-05
7.39871e-05
7.54018e-05
7.66092e-05
7.7612e-05
7.84212e-05
7.90374e-05
7.94752e-05
7.97362e-05
7.98309e-05