/*--------------------------------*- C++ -*----------------------------------*\
| =========                 |                                                 |
| \\      /  F ield         | OpenFOAM: The Open Source CFD Toolbox           |
|  \\    /   O peration     | Version:  2306                                  |
|   \\  /    A nd           | Website:  www.openfoam.com                      |
|    \\/     M anipulation  |                                                 |
\*---------------------------------------------------------------------------*/
// * * * * * * * * * * * * * * * * * * * * * * * * * * * * * * * * * * * * * //
FoamFile
{
    version         2;
    format          ascii;
    class           volTensorField;
    location        "0";
    object          Q_S;
}

dimensions      [ 0 0 0 0 0 0 0 ];

internalField   nonuniform List<tensor> 
14751
(
(0.707224 0.706989 6.97232e-32 -0.706989 0.707224 -2.02068e-28 -1.4286e-28 1.42907e-28 1)
(0.707206 0.707007 5.31172e-23 -0.707007 0.707206 9.48185e-26 5.56599e-26 -5.56755e-26 1)
(0.707228 0.706985 9.70164e-24 -0.706985 0.707228 1.60728e-24 1.13408e-24 -1.13447e-24 1)
(0.707298 0.706916 2.16967e-24 -0.706916 0.707298 3.98041e-22 2.81381e-22 -2.81533e-22 1)
(0.707312 0.706901 6.38068e-28 -0.706901 0.707312 -1.70472e-24 -1.20507e-24 1.20577e-24 1)
(0.707342 0.706871 -6.74951e-22 -0.706871 0.707342 1.3977e-24 1.27503e-24 -1.27588e-24 1)
(0.707363 0.70685 6.94418e-23 -0.70685 0.707363 1.99049e-22 1.40665e-22 -1.40768e-22 1)
(0.707391 0.706822 -1.88908e-22 -0.706822 0.707391 -3.5297e-24 -2.39897e-24 2.4009e-24 1)
(0.707412 0.706801 1.33208e-22 -0.706801 0.707412 1.19912e-25 1.20284e-26 -1.20388e-26 1)
(0.707429 0.706785 -1.29552e-21 -0.706785 0.707429 -9.47063e-25 7.04752e-26 -7.05394e-26 1)
(0.707444 0.706769 -3.79236e-22 -0.706769 0.707444 6.81837e-24 5.04456e-24 -5.04937e-24 1)
(0.707453 0.70676 2.00563e-21 -0.70676 0.707453 4.12037e-23 2.78979e-23 -2.79252e-23 1)
(0.707464 0.706749 -2.0346e-23 -0.706749 0.707464 -3.97857e-23 -2.81059e-23 2.81343e-23 1)
(0.707466 0.706747 -1.84717e-21 -0.706747 0.707466 7.82592e-23 5.6471e-23 -5.65284e-23 1)
(0.707473 0.70674 -4.80558e-23 -0.70674 0.707473 -8.43965e-23 -5.96159e-23 5.96778e-23 1)
(0.707468 0.706746 5.55014e-22 -0.706746 0.707468 1.28008e-25 -2.576e-25 2.57864e-25 1)
(0.707469 0.706744 -6.163e-22 -0.706744 0.707469 -7.86484e-23 -5.52009e-23 5.52576e-23 1)
(0.707463 0.70675 -1.72857e-21 -0.70675 0.707463 1.09875e-22 7.87154e-23 -7.87947e-23 1)
(0.707459 0.706754 -5.85121e-22 -0.706754 0.707459 3.54925e-23 2.54367e-23 -2.5462e-23 1)
(0.70745 0.706763 2.58124e-21 -0.706763 0.70745 -4.06113e-23 -3.02186e-23 3.0248e-23 1)
(0.707439 0.706775 1.18913e-28 -0.706775 0.707439 -1.12172e-25 -7.92801e-26 7.93547e-26 1)
(0.707429 0.706785 -3.53569e-23 -0.706785 0.707429 -4.12418e-23 -2.91298e-23 2.91564e-23 1)
(0.707416 0.706797 -2.43668e-24 -0.706797 0.707416 -7.05711e-25 -4.97522e-25 4.97958e-25 1)
(0.707403 0.70681 7.56472e-23 -0.70681 0.707403 8.93124e-23 6.30893e-23 -6.31422e-23 1)
(0.707389 0.706824 2.34664e-24 -0.706824 0.707389 7.96409e-25 5.61812e-25 -5.62261e-25 1)
(0.707375 0.706839 -3.05521e-21 -0.706839 0.707375 -3.77162e-23 -2.52952e-23 2.53144e-23 1)
(0.70736 0.706854 1.52558e-21 -0.706854 0.70736 -2.90611e-24 -2.69451e-24 2.69644e-24 1)
(0.707344 0.706869 -1.52139e-21 -0.706869 0.707344 1.82671e-23 1.35088e-23 -1.35179e-23 1)
(0.707329 0.706885 -1.57868e-21 -0.706885 0.707329 -4.56302e-23 -3.16799e-23 3.16998e-23 1)
(0.707313 0.7069 2.80696e-23 -0.7069 0.707313 4.74234e-23 3.35141e-23 -3.35337e-23 1)
(0.707297 0.706916 -1.18119e-21 -0.706916 0.707297 2.57692e-24 2.18671e-24 -2.18789e-24 1)
(0.707282 0.706932 -3.81378e-22 -0.706932 0.707282 2.56252e-23 1.82226e-23 -1.82316e-23 1)
(0.707266 0.706948 8.09031e-24 -0.706948 0.707266 2.44173e-23 1.72597e-23 -1.72675e-23 1)
(0.707251 0.706963 -1.88114e-22 -0.706963 0.707251 1.05806e-23 7.52277e-24 -7.52583e-24 1)
(0.707235 0.706978 1.72069e-22 -0.706978 0.707235 -1.6826e-23 -1.19301e-23 1.19344e-23 1)
(0.70722 0.706994 1.56803e-21 -0.706994 0.70722 1.2216e-22 8.60943e-23 -8.61218e-23 1)
(0.707205 0.707009 5.72741e-22 -0.707009 0.707205 5.66562e-24 3.92131e-24 -3.9224e-24 1)
(0.70719 0.707023 -3.79368e-22 -0.707023 0.70719 -1.09827e-23 -7.71864e-24 7.72046e-24 1)
(0.707176 0.707038 -1.83148e-22 -0.707038 0.707176 4.13311e-25 3.10146e-25 -3.10207e-25 1)
(0.707162 0.707052 8.85781e-23 -0.707052 0.707162 -1.64239e-24 -1.16784e-24 1.16802e-24 1)
(0.707148 0.707065 5.10586e-22 -0.707065 0.707148 -5.13381e-23 -3.63253e-23 3.63296e-23 1)
(0.707135 0.707079 7.16818e-23 -0.707079 0.707135 -4.65125e-23 -3.289e-23 3.28926e-23 1)
(0.707121 0.707092 3.49737e-22 -0.707092 0.707121 5.13796e-23 3.63283e-23 -3.63298e-23 1)
(0.707108 0.707105 2.86389e-22 -0.707105 0.707108 -1.5923e-24 -1.12112e-24 1.12113e-24 1)
(0.707096 0.707118 4.02337e-23 -0.707118 0.707096 -2.19297e-27 -1.43747e-29 1.43742e-29 1)
(0.707083 0.70713 -3.80286e-23 -0.70713 0.707083 3.57901e-25 2.50827e-25 -2.5081e-25 1)
(0.707071 0.707143 2.28032e-23 -0.707143 0.707071 1.20931e-23 8.55336e-24 -8.55249e-24 1)
(0.707059 0.707155 6.28203e-24 -0.707155 0.707059 -1.24828e-23 -8.82667e-24 8.82548e-24 1)
(0.707047 0.707167 7.19062e-24 -0.707167 0.707047 1.18233e-23 8.36187e-24 -8.36046e-24 1)
(0.707035 0.707178 1.7633e-24 -0.707178 0.707035 -1.1791e-23 -8.33807e-24 8.33638e-24 1)
(0.707024 0.70719 3.48544e-23 -0.70719 0.707024 1.22754e-23 8.68659e-24 -8.68455e-24 1)
(0.707013 0.707201 -1.76358e-23 -0.707201 0.707013 -1.28146e-23 -9.06561e-24 9.0632e-24 1)
(0.707002 0.707212 1.30322e-22 -0.707212 0.707002 -1.09054e-23 -7.68693e-24 7.68464e-24 1)
(0.706991 0.707223 2.63777e-23 -0.707223 0.706991 -1.2672e-24 -8.90534e-25 8.90242e-25 1)
(0.70698 0.707234 -2.79942e-23 -0.707234 0.70698 -9.76443e-24 -6.91225e-24 6.90976e-24 1)
(0.706969 0.707244 -7.57174e-26 -0.707244 0.706969 1.42592e-25 1.00828e-25 -1.00789e-25 1)
(0.706958 0.707255 -1.27903e-24 -0.707255 0.706958 -2.61859e-24 -1.85236e-24 1.85158e-24 1)
(0.706948 0.707265 1.42439e-28 -0.707265 0.706948 2.49277e-25 1.76305e-25 -1.76226e-25 1)
(0.706938 0.707275 -3.71852e-23 -0.707275 0.706938 1.24546e-23 8.79763e-24 -8.79343e-24 1)
(0.706928 0.707285 3.88022e-23 -0.707285 0.706928 -5.33131e-25 -3.64727e-25 3.64543e-25 1)
(0.706919 0.707295 2.70509e-22 -0.707295 0.706919 -2.50052e-23 -1.75956e-23 1.75863e-23 1)
(0.706909 0.707304 -5.90353e-23 -0.707304 0.706909 3.50387e-25 2.27155e-25 -2.27028e-25 1)
(0.7069 0.707314 5.87923e-23 -0.707314 0.7069 -5.00411e-25 -3.32459e-25 3.32264e-25 1)
(0.706891 0.707322 -4.00414e-22 -0.707322 0.706891 -4.90347e-23 -3.48356e-23 3.48143e-23 1)
(0.706883 0.707331 -3.40303e-22 -0.707331 0.706883 6.0666e-23 4.27767e-23 -4.27496e-23 1)
(0.706875 0.707339 2.83544e-23 -0.707339 0.706875 -3.15138e-23 -2.22794e-23 2.22647e-23 1)
(0.706867 0.707347 2.42712e-25 -0.707347 0.706867 7.08598e-23 5.01225e-23 -5.00885e-23 1)
(0.706859 0.707354 -2.78174e-23 -0.707354 0.706859 -5.04166e-25 -3.68697e-25 3.68439e-25 1)
(0.706852 0.707361 3.03311e-23 -0.707361 0.706852 -2.09243e-23 -1.47875e-23 1.47769e-23 1)
(0.706846 0.707367 -3.02001e-23 -0.707367 0.706846 2.09139e-23 1.478e-23 -1.47691e-23 1)
(0.70684 0.707373 -8.66946e-24 -0.707373 0.70684 2.08568e-23 1.47495e-23 -1.47384e-23 1)
(0.706835 0.707378 8.58953e-24 -0.707378 0.706835 -3.32259e-23 -2.34992e-23 2.34812e-23 1)
(0.706831 0.707383 -2.84213e-23 -0.707383 0.706831 2.36661e-26 3.03132e-27 -3.02895e-27 1)
(0.706827 0.707387 -1.39921e-22 -0.707387 0.706827 1.25353e-23 8.79898e-24 -8.79202e-24 1)
(0.706824 0.70739 2.51247e-22 -0.70739 0.706824 3.90107e-26 1.51664e-25 -1.51543e-25 1)
(0.706821 0.707392 2.66793e-22 -0.707392 0.706821 -4.21008e-23 -2.9649e-23 2.9625e-23 1)
(0.70682 0.707394 -4.19942e-24 -0.707394 0.70682 4.11269e-23 2.90908e-23 -2.90672e-23 1)
(0.706819 0.707394 8.50876e-28 -0.707394 0.706819 5.65515e-25 4.00042e-25 -3.99717e-25 1)
(0.70682 0.707394 5.01216e-22 -0.707394 0.70682 -5.4689e-23 -3.84363e-23 3.84051e-23 1)
(0.70682 0.707393 -6.57227e-24 -0.707393 0.70682 4.08208e-23 2.88731e-23 -2.88497e-23 1)
(0.706824 0.707389 4.65914e-28 -0.707389 0.706824 2.96739e-25 2.09911e-25 -2.09743e-25 1)
(0.706827 0.707386 8.11921e-22 -0.707386 0.706827 -6.02589e-25 -3.45397e-26 3.45124e-26 1)
(0.706833 0.707381 -1.66181e-22 -0.707381 0.706833 6.31788e-24 4.39038e-24 -4.38698e-24 1)
(0.706837 0.707377 7.1402e-22 -0.707377 0.706837 1.13598e-24 1.13398e-24 -1.13311e-24 1)
(0.706847 0.707366 -7.35988e-22 -0.707366 0.706847 4.60552e-26 -2.96657e-25 2.9644e-25 1)
(0.706855 0.707359 -5.72578e-22 -0.707359 0.706855 4.25149e-23 2.98279e-23 -2.98066e-23 1)
(0.706871 0.707342 -3.59284e-22 -0.707342 0.706871 -8.81213e-23 -6.24768e-23 6.24351e-23 1)
(0.706881 0.707333 1.7997e-22 -0.707333 0.706881 3.98737e-23 2.82724e-23 -2.82543e-23 1)
(0.706898 0.707315 9.20857e-23 -0.707315 0.706898 2.76867e-25 2.28155e-25 -2.2802e-25 1)
(0.706916 0.707298 6.32053e-22 -0.707298 0.706916 1.00774e-23 7.32766e-24 -7.32371e-24 1)
(0.706939 0.707275 -8.24788e-23 -0.707275 0.706939 -9.87962e-24 -7.01035e-24 7.00702e-24 1)
(0.706962 0.707252 7.42802e-22 -0.707252 0.706962 -2.52249e-23 -1.76668e-23 1.76596e-23 1)
(0.706988 0.707225 6.09004e-22 -0.707225 0.706988 -1.70955e-25 -1.01932e-26 1.01898e-26 1)
(0.707019 0.707195 -1.05984e-24 -0.707195 0.707019 2.45929e-23 1.73918e-23 -1.73875e-23 1)
(0.707041 0.707172 6.57334e-25 -0.707172 0.707041 -4.97719e-24 -3.51968e-24 3.51902e-24 1)
(0.707088 0.707125 -6.35376e-24 -0.707125 0.707088 4.96734e-24 3.51246e-24 -3.51227e-24 1)
(0.707102 0.707111 1.68402e-22 -0.707111 0.707102 2.49166e-23 1.76127e-23 -1.76124e-23 1)
(0.707128 0.707086 -1.09222e-26 -0.707086 0.707128 2.49586e-25 1.76479e-25 -1.7649e-25 1)
(0.70713 0.707083 -2.47256e-25 -0.707083 0.70713 -1.58475e-25 -1.12033e-25 1.12041e-25 1)
(0.707504 0.706709 -9.29072e-27 -0.706709 0.707504 7.70798e-24 5.4473e-24 -5.45343e-24 1)
(0.707504 0.706709 -1.38863e-22 -0.706709 0.707504 1.21547e-20 8.58993e-21 -8.5996e-21 1)
(0.707578 0.706636 2.52392e-23 -0.706636 0.707578 6.52622e-22 4.61142e-22 -4.61757e-22 1)
(0.707811 0.706402 -2.07049e-21 -0.706402 0.707811 -1.78735e-21 -1.25959e-21 1.2621e-21 1)
(0.707896 0.706317 9.39069e-25 -0.706317 0.707896 -9.31011e-23 -6.57604e-23 6.59075e-23 1)
(0.708003 0.706209 1.64237e-21 -0.706209 0.708003 -2.4096e-20 -1.70199e-20 1.70631e-20 1)
(0.708103 0.706109 -1.05168e-22 -0.706109 0.708103 8.35159e-22 5.89936e-22 -5.91601e-22 1)
(0.70821 0.706002 -2.37986e-23 -0.706002 0.70821 -3.93219e-21 -2.77608e-21 2.78476e-21 1)
(0.708303 0.705908 1.15349e-20 -0.705908 0.708303 2.52482e-21 1.75277e-21 -1.75872e-21 1)
(0.708374 0.705837 3.07728e-21 -0.705837 0.708374 -2.40276e-20 -1.69679e-20 1.70289e-20 1)
(0.70844 0.705771 1.46173e-20 -0.705771 0.70844 -4.70103e-21 -3.35975e-21 3.37245e-21 1)
(0.708487 0.705723 1.46212e-20 -0.705723 0.708487 2.93325e-20 2.0657e-20 -2.07379e-20 1)
(0.708533 0.705677 1.34362e-20 -0.705677 0.708533 -5.33438e-22 -4.17877e-22 4.19569e-22 1)
(0.708561 0.70565 -1.51775e-20 -0.70565 0.708561 -2.3986e-20 -1.68777e-20 1.69473e-20 1)
(0.708589 0.705621 -2.82547e-23 -0.705621 0.708589 3.78673e-22 2.6729e-22 -2.68415e-22 1)
(0.708588 0.705623 -9.3016e-24 -0.705623 0.708588 5.14325e-21 3.62922e-21 -3.64447e-21 1)
(0.708596 0.705615 2.64782e-20 -0.705615 0.708596 -5.54926e-21 -4.00169e-21 4.0186e-21 1)
(0.708587 0.705623 8.71032e-21 -0.705623 0.708587 -1.87869e-20 -1.32847e-20 1.33405e-20 1)
(0.708576 0.705635 -1.53998e-22 -0.705635 0.708576 -4.61618e-21 -3.25684e-21 3.27041e-21 1)
(0.708552 0.705659 -9.32647e-21 -0.705659 0.708552 2.41174e-20 1.70483e-20 -1.71182e-20 1)
(0.708513 0.705697 3.59067e-21 -0.705697 0.708513 -4.08729e-22 -2.99575e-22 3.0077e-22 1)
(0.708479 0.705732 -3.5174e-21 -0.705732 0.708479 -1.4032e-23 7.63234e-25 -7.66204e-25 1)
(0.708435 0.705776 1.55168e-23 -0.705776 0.708435 1.70035e-23 1.1955e-23 -1.2e-23 1)
(0.708387 0.705825 -2.17441e-21 -0.705825 0.708387 -2.68318e-23 -1.27577e-23 1.2804e-23 1)
(0.708334 0.705877 1.9591e-21 -0.705877 0.708334 -5.06687e-22 -3.63014e-22 3.64278e-22 1)
(0.708278 0.705933 7.13652e-21 -0.705933 0.708278 -2.40783e-20 -1.70163e-20 1.70728e-20 1)
(0.70822 0.705992 -3.55977e-21 -0.705992 0.70822 1.24564e-20 8.803e-21 -8.83078e-21 1)
(0.708157 0.706055 -1.3132e-20 -0.706055 0.708157 -1.2786e-20 -8.99662e-21 9.02341e-21 1)
(0.708095 0.706117 5.86924e-21 -0.706117 0.708095 -1.19021e-20 -8.41732e-21 8.4409e-21 1)
(0.70803 0.706182 -2.24517e-21 -0.706182 0.70803 -1.37738e-23 -5.03965e-24 5.05284e-24 1)
(0.707965 0.706248 3.82143e-21 -0.706248 0.707965 -9.73164e-21 -6.88039e-21 6.89711e-21 1)
(0.707899 0.706314 8.3694e-21 -0.706314 0.707899 -2.57626e-21 -1.83475e-21 1.83886e-21 1)
(0.707832 0.706381 1.00846e-21 -0.706381 0.707832 -3.35663e-23 -2.53838e-23 2.54359e-23 1)
(0.707766 0.706447 -2.25601e-21 -0.706447 0.707766 -1.3677e-21 -9.62788e-22 9.64585e-22 1)
(0.707699 0.706514 1.20922e-21 -0.706514 0.707699 1.6676e-21 1.17653e-21 -1.1785e-21 1)
(0.707633 0.70658 -3.92269e-21 -0.70658 0.707633 1.22069e-20 8.62996e-21 -8.64282e-21 1)
(0.707567 0.706646 6.53957e-21 -0.706646 0.707567 4.54065e-21 3.20156e-21 -3.20573e-21 1)
(0.707503 0.70671 1.03066e-20 -0.70671 0.707503 -3.60583e-21 -2.55797e-21 2.56084e-21 1)
(0.707439 0.706774 -8.02915e-23 -0.706774 0.707439 -1.30056e-21 -9.19137e-22 9.20002e-22 1)
(0.707377 0.706836 3.86726e-23 -0.706836 0.707377 8.21904e-22 5.80926e-22 -5.8137e-22 1)
(0.707315 0.706899 -1.15076e-21 -0.706899 0.707315 5.03541e-21 3.56013e-21 -3.56222e-21 1)
(0.707254 0.70696 3.58274e-21 -0.70696 0.707254 8.00186e-22 5.64305e-22 -5.6454e-22 1)
(0.707193 0.70702 -1.39755e-21 -0.70702 0.707193 3.02904e-21 2.14195e-21 -2.14247e-21 1)
(0.707134 0.707079 -3.85329e-21 -0.707079 0.707134 2.74951e-21 1.9446e-21 -1.94475e-21 1)
(0.707076 0.707137 1.26202e-23 -0.707137 0.707076 2.89076e-22 2.04417e-22 -2.04399e-22 1)
(0.707019 0.707195 1.53528e-21 -0.707195 0.707019 -3.53394e-22 -2.49714e-22 2.49652e-22 1)
(0.706962 0.707251 -1.66998e-23 -0.707251 0.706962 1.46689e-22 1.03742e-22 -1.037e-22 1)
(0.706907 0.707306 2.93253e-23 -0.707306 0.706907 1.21242e-22 8.57662e-23 -8.57178e-23 1)
(0.706852 0.707361 4.15768e-24 -0.707361 0.706852 5.58761e-24 3.95456e-24 -3.95172e-24 1)
(0.706799 0.707415 -8.44109e-25 -0.707415 0.706799 8.56309e-23 6.05761e-23 -6.05233e-23 1)
(0.706746 0.707467 -1.9078e-22 -0.707467 0.706746 3.54685e-22 2.50786e-22 -2.50531e-22 1)
(0.706694 0.707519 1.04649e-22 -0.707519 0.706694 -1.18257e-22 -8.35789e-23 8.34814e-23 1)
(0.706643 0.70757 -9.27788e-23 -0.70757 0.706643 1.79829e-21 1.27233e-21 -1.27066e-21 1)
(0.706592 0.707621 1.13815e-21 -0.707621 0.706592 3.18881e-22 2.26889e-22 -2.26559e-22 1)
(0.706542 0.707671 1.30624e-24 -0.707671 0.706542 -3.16144e-22 -2.23724e-22 2.23367e-22 1)
(0.706493 0.70772 -2.78427e-22 -0.70772 0.706493 4.8177e-24 3.04393e-24 -3.03866e-24 1)
(0.706445 0.707768 2.8109e-22 -0.707768 0.706445 -5.56144e-25 6.12808e-27 -6.11663e-27 1)
(0.706398 0.707815 -2.87643e-26 -0.707815 0.706398 -7.56706e-24 -5.35612e-24 5.34539e-24 1)
(0.706352 0.707861 1.82923e-21 -0.707861 0.706352 -7.31331e-22 -5.14696e-22 5.13599e-22 1)
(0.706307 0.707905 -1.69619e-21 -0.707905 0.706307 7.54564e-22 5.31221e-22 -5.30022e-22 1)
(0.706263 0.707949 -6.27972e-22 -0.707949 0.706263 6.34316e-21 4.48949e-21 -4.4788e-21 1)
(0.706221 0.707991 -3.66574e-22 -0.707991 0.706221 -1.42854e-21 -1.0121e-21 1.00957e-21 1)
(0.70618 0.708033 3.63605e-22 -0.708033 0.70618 1.3181e-21 9.33994e-22 -9.3155e-22 1)
(0.706141 0.708072 9.64166e-22 -0.708072 0.706141 -1.24543e-20 -8.8165e-21 8.79246e-21 1)
(0.706103 0.708109 7.7341e-22 -0.708109 0.706103 -1.25789e-20 -8.90554e-21 8.8803e-21 1)
(0.706067 0.708145 -1.45171e-21 -0.708145 0.706067 1.44716e-21 1.0215e-21 -1.01851e-21 1)
(0.706033 0.708179 -1.30684e-21 -0.708179 0.706033 -1.40224e-22 -1.02373e-22 1.02063e-22 1)
(0.706001 0.708211 -3.27774e-22 -0.708211 0.706001 -1.35767e-21 -9.62312e-22 9.5931e-22 1)
(0.705972 0.70824 2.45828e-23 -0.70824 0.705972 2.75039e-21 1.948e-21 -1.94176e-21 1)
(0.705946 0.708266 1.14747e-21 -0.708266 0.705946 -2.73258e-21 -1.93247e-21 1.92614e-21 1)
(0.705922 0.70829 -6.32925e-23 -0.70829 0.705922 -2.73432e-21 -1.93685e-21 1.93038e-21 1)
(0.705901 0.708311 6.32595e-23 -0.708311 0.705901 2.74304e-21 1.94309e-21 -1.93648e-21 1)
(0.705883 0.708328 9.69277e-23 -0.708328 0.705883 1.23202e-20 8.72701e-21 -8.69688e-21 1)
(0.705869 0.708343 2.70476e-22 -0.708343 0.705869 2.46638e-20 1.74712e-20 -1.74102e-20 1)
(0.705857 0.708354 -6.28531e-22 -0.708354 0.705857 -2.72664e-20 -1.9316e-20 1.92479e-20 1)
(0.705849 0.708363 -6.01766e-22 -0.708363 0.705849 -2.19257e-20 -1.5533e-20 1.54779e-20 1)
(0.705846 0.708365 -5.31586e-22 -0.708365 0.705846 -4.14145e-23 -3.08087e-23 3.06992e-23 1)
(0.705847 0.708364 5.39812e-22 -0.708364 0.705847 8.00992e-23 5.8233e-23 -5.80261e-23 1)
(0.705851 0.70836 -3.91214e-21 -0.70836 0.705851 -2.44247e-20 -1.73123e-20 1.7251e-20 1)
(0.70586 0.708351 1.73665e-23 -0.708351 0.70586 -7.99389e-23 -5.65772e-23 5.63783e-23 1)
(0.705878 0.708333 -6.41554e-21 -0.708333 0.705878 1.55575e-22 9.28411e-23 -9.25193e-23 1)
(0.705898 0.708314 5.32205e-21 -0.708314 0.705898 -2.98272e-20 -2.11129e-20 2.10408e-20 1)
(0.705923 0.708289 -3.11524e-23 -0.708289 0.705923 5.29967e-21 3.75362e-21 -3.74108e-21 1)
(0.705951 0.708261 -1.74823e-21 -0.708261 0.705951 -2.44404e-20 -1.73146e-20 1.72581e-20 1)
(0.705993 0.708218 1.7939e-21 -0.708218 0.705993 2.41272e-20 1.70917e-20 -1.7038e-20 1)
(0.706039 0.708173 9.80069e-21 -0.708173 0.706039 1.89774e-20 1.34625e-20 -1.34219e-20 1)
(0.706103 0.708109 -8.05153e-21 -0.708109 0.706103 1.0844e-20 7.66074e-21 -7.63903e-21 1)
(0.706157 0.708055 6.01035e-23 -0.708055 0.706157 -5.24956e-21 -3.71685e-21 3.70689e-21 1)
(0.706231 0.707982 1.59816e-23 -0.707982 0.706231 -2.61258e-21 -1.84963e-21 1.84505e-21 1)
(0.706311 0.707901 -1.31965e-21 -0.707901 0.706311 -2.16757e-20 -1.53466e-20 1.53121e-20 1)
(0.706406 0.707807 -4.78552e-22 -0.707807 0.706406 2.69791e-21 1.90884e-21 -1.90507e-21 1)
(0.706505 0.707709 -1.80805e-21 -0.707709 0.706505 -2.68272e-20 -1.89883e-20 1.8956e-20 1)
(0.706617 0.707597 -1.37837e-21 -0.707597 0.706617 -2.44607e-20 -1.73099e-20 1.72859e-20 1)
(0.706731 0.707482 5.75285e-21 -0.707482 0.706731 -1.66588e-22 -1.12706e-22 1.12586e-22 1)
(0.70684 0.707374 -1.86126e-24 -0.707374 0.70684 -1.15307e-24 -8.16839e-25 8.16222e-25 1)
(0.706992 0.707221 -2.09643e-21 -0.707221 0.706992 3.6104e-22 2.54603e-22 -2.5452e-22 1)
(0.707082 0.707132 -3.49124e-22 -0.707132 0.707082 -1.26031e-20 -8.91206e-21 8.91143e-21 1)
(0.707154 0.70706 -1.09776e-23 -0.70706 0.707154 -2.45362e-23 -1.73487e-23 1.73511e-23 1)
(0.707224 0.706989 5.88367e-25 -0.706989 0.707224 4.72606e-23 3.34126e-23 -3.34237e-23 1)
(0.707632 0.706581 1.91334e-25 -0.706581 0.707632 -8.17554e-24 -5.77687e-24 5.78546e-24 1)
(0.70772 0.706493 -1.63435e-22 -0.706493 0.70772 -1.3701e-20 -9.67942e-21 9.69623e-21 1)
(0.707876 0.706337 -3.26581e-23 -0.706337 0.707876 8.48819e-22 5.99603e-22 -6.00909e-22 1)
(0.708214 0.705998 2.09232e-21 -0.705998 0.708214 -6.82696e-20 -4.82028e-20 4.83541e-20 1)
(0.708393 0.705819 7.0085e-23 -0.705819 0.708393 2.41856e-22 1.70524e-22 -1.71146e-22 1)
(0.708589 0.705621 2.24298e-21 -0.705621 0.708589 2.71104e-20 1.91231e-20 -1.92035e-20 1)
(0.708783 0.705427 -1.71698e-20 -0.705427 0.708783 -1.7814e-22 -6.77888e-23 6.81113e-23 1)
(0.708975 0.705234 6.11922e-22 -0.705234 0.708975 7.26574e-22 5.10118e-22 -5.12824e-22 1)
(0.709148 0.70506 -3.63679e-20 -0.70506 0.709148 1.32909e-19 9.38576e-20 -9.44018e-20 1)
(0.709287 0.70492 5.16673e-21 -0.70492 0.709287 2.70035e-20 1.90128e-20 -1.91305e-20 1)
(0.709413 0.704793 -1.33541e-20 -0.704793 0.709413 1.32897e-19 9.37268e-20 -9.43412e-20 1)
(0.709516 0.704689 -2.27064e-20 -0.704689 0.709516 1.2007e-19 8.47216e-20 -8.53019e-20 1)
(0.709607 0.704598 -1.52252e-20 -0.704598 0.709607 9.96838e-20 7.0313e-20 -7.08128e-20 1)
(0.709674 0.70453 -1.62898e-20 -0.70453 0.709674 -1.05776e-19 -7.44385e-20 7.49819e-20 1)
(0.70973 0.704474 -3.68629e-20 -0.704474 0.70973 9.0154e-22 8.27958e-22 -8.34135e-22 1)
(0.70975 0.704454 3.76005e-20 -0.704454 0.70975 2.19813e-21 1.34962e-21 -1.35977e-21 1)
(0.70977 0.704434 -2.05106e-20 -0.704434 0.70977 1.46332e-19 1.0319e-19 -1.03972e-19 1)
(0.70977 0.704433 6.71287e-21 -0.704433 0.70977 3.93533e-20 2.76861e-20 -2.78958e-20 1)
(0.709756 0.704447 -1.21824e-21 -0.704447 0.709756 -1.51314e-21 -1.0595e-21 1.06748e-21 1)
(0.709724 0.70448 2.47596e-20 -0.70448 0.709724 -4.0781e-20 -2.88588e-20 2.90736e-20 1)
(0.709668 0.704537 -2.81267e-20 -0.704537 0.709668 1.50216e-20 1.07269e-20 -1.08051e-20 1)
(0.709613 0.704592 -3.33279e-20 -0.704592 0.709613 -1.53832e-20 -1.06723e-20 1.07483e-20 1)
(0.709543 0.704662 -3.83379e-21 -0.704662 0.709543 9.38478e-23 8.47516e-23 -8.53386e-23 1)
(0.709464 0.704741 -2.23111e-22 -0.704741 0.709464 -7.2325e-21 -5.09599e-21 5.13014e-21 1)
(0.709378 0.704829 -3.16244e-20 -0.704829 0.709378 7.94314e-21 5.74166e-21 -5.77871e-21 1)
(0.709283 0.704923 1.51021e-20 -0.704923 0.709283 2.57953e-20 1.81182e-20 -1.82303e-20 1)
(0.709184 0.705024 2.72197e-20 -0.705024 0.709184 -1.43457e-20 -1.02267e-20 1.0287e-20 1)
(0.709077 0.705131 2.49081e-20 -0.705131 0.709077 -5.10533e-20 -3.6097e-20 3.6299e-20 1)
(0.708968 0.70524 1.72827e-21 -0.70524 0.708968 2.11679e-20 1.49221e-20 -1.5001e-20 1)
(0.708856 0.705353 -1.664e-22 -0.705353 0.708856 -7.57508e-21 -5.34253e-21 5.36906e-21 1)
(0.708741 0.705469 4.5223e-21 -0.705469 0.708741 1.38273e-20 9.74003e-21 -9.78521e-21 1)
(0.708625 0.705586 1.07886e-20 -0.705586 0.708625 3.23025e-20 2.27596e-20 -2.28576e-20 1)
(0.708507 0.705704 2.28598e-21 -0.705704 0.708507 2.93579e-21 2.06543e-21 -2.07363e-21 1)
(0.708389 0.705822 -1.66495e-21 -0.705822 0.708389 -7.40355e-21 -5.22134e-21 5.24033e-21 1)
(0.708271 0.70594 -5.53378e-22 -0.70594 0.708271 3.5606e-21 2.51485e-21 -2.52316e-21 1)
(0.708154 0.706058 -7.70801e-21 -0.706058 0.708154 -1.27224e-20 -8.9667e-21 8.99331e-21 1)
(0.708036 0.706176 -7.50537e-21 -0.706176 0.708036 2.69955e-20 1.90774e-20 -1.91277e-20 1)
(0.70792 0.706292 -5.73587e-21 -0.706292 0.70792 3.85955e-20 2.7269e-20 -2.73318e-20 1)
(0.707805 0.706408 6.50319e-22 -0.706408 0.707805 -7.40403e-22 -5.23928e-22 5.24965e-22 1)
(0.707692 0.706521 -3.11907e-22 -0.706521 0.707692 -1.0664e-22 -7.49816e-23 7.51058e-23 1)
(0.707579 0.706634 -9.96217e-21 -0.706634 0.707579 -4.46194e-21 -3.14364e-21 3.14784e-21 1)
(0.707468 0.706746 -4.77754e-21 -0.706746 0.707468 1.44165e-20 1.01922e-20 -1.02026e-20 1)
(0.707358 0.706856 -3.30874e-22 -0.706856 0.707358 -5.64656e-21 -3.99114e-21 3.99398e-21 1)
(0.70725 0.706963 9.53297e-21 -0.706963 0.70725 -1.6659e-20 -1.178e-20 1.17848e-20 1)
(0.707144 0.707069 -3.28361e-21 -0.707069 0.707144 3.92133e-22 2.77496e-22 -2.77525e-22 1)
(0.707039 0.707174 -1.85489e-21 -0.707174 0.707039 7.20965e-21 5.09822e-21 -5.09725e-21 1)
(0.706936 0.707278 3.52935e-21 -0.707278 0.706936 -1.11744e-22 -7.7815e-23 7.77773e-23 1)
(0.706834 0.707379 -2.56768e-22 -0.707379 0.706834 1.95615e-24 1.24292e-24 -1.24197e-24 1)
(0.706733 0.70748 -4.5982e-23 -0.70748 0.706733 1.14016e-22 8.06298e-23 -8.05447e-23 1)
(0.706634 0.707579 1.50099e-23 -0.707579 0.706634 -1.30246e-22 -9.2145e-23 9.20219e-23 1)
(0.706537 0.707676 -9.38451e-22 -0.707676 0.706537 -8.61467e-22 -6.1071e-22 6.09726e-22 1)
(0.70644 0.707772 1.40127e-22 -0.707772 0.70644 4.61658e-22 3.26936e-22 -3.26321e-22 1)
(0.706346 0.707867 -5.03546e-22 -0.707867 0.706346 -6.32695e-22 -4.4863e-22 4.47666e-22 1)
(0.706251 0.707961 -8.95133e-22 -0.707961 0.706251 7.21011e-21 5.10295e-21 -5.09063e-21 1)
(0.706159 0.708054 -5.1058e-22 -0.708054 0.706159 -9.71442e-23 -6.97501e-23 6.95635e-23 1)
(0.706068 0.708144 -4.22961e-21 -0.708144 0.706068 -1.81687e-21 -1.29538e-21 1.29158e-21 1)
(0.705978 0.708233 -4.16043e-21 -0.708233 0.705978 1.8706e-21 1.31545e-21 -1.31126e-21 1)
(0.705891 0.708321 7.7735e-25 -0.708321 0.705891 1.1211e-22 7.94119e-23 -7.91395e-23 1)
(0.705806 0.708406 -5.02982e-21 -0.708406 0.705806 1.60887e-20 1.13842e-20 -1.13424e-20 1)
(0.705722 0.708488 1.67894e-21 -0.708488 0.705722 -1.63732e-20 -1.15956e-20 1.15503e-20 1)
(0.705641 0.708569 -1.48892e-21 -0.708569 0.705641 -6.39259e-21 -4.53395e-21 4.51521e-21 1)
(0.705562 0.708648 1.53491e-22 -0.708648 0.705562 -3.60954e-21 -2.55742e-21 2.54628e-21 1)
(0.705486 0.708724 -1.50182e-22 -0.708724 0.705486 3.76088e-21 2.66494e-21 -2.65276e-21 1)
(0.705413 0.708797 1.02921e-21 -0.708797 0.705413 1.29995e-20 9.21745e-21 -9.17345e-21 1)
(0.705343 0.708866 2.35049e-21 -0.708866 0.705343 1.27563e-20 9.05079e-21 -9.00581e-21 1)
(0.705277 0.708932 -2.49824e-21 -0.708932 0.705277 -2.87147e-20 -2.03659e-20 2.02609e-20 1)
(0.705214 0.708995 1.13084e-21 -0.708995 0.705214 -2.84497e-20 -2.01664e-20 2.00589e-20 1)
(0.705155 0.709053 2.72278e-23 -0.709053 0.705155 -7.20118e-21 -5.10591e-21 5.07784e-21 1)
(0.705102 0.709106 6.78936e-23 -0.709106 0.705102 1.02409e-22 7.28908e-23 -7.24792e-23 1)
(0.705053 0.709155 -5.54113e-22 -0.709155 0.705053 6.43954e-20 4.5664e-20 -4.53999e-20 1)
(0.705009 0.709198 -1.43875e-21 -0.709198 0.705009 -7.4165e-21 -5.26579e-21 5.23469e-21 1)
(0.70497 0.709237 -8.92497e-23 -0.709237 0.70497 7.28626e-21 5.1673e-21 -5.13622e-21 1)
(0.704938 0.709269 -5.59676e-22 -0.709269 0.704938 -1.28919e-20 -9.14627e-21 9.09041e-21 1)
(0.704911 0.709296 2.12706e-21 -0.709296 0.704911 -1.85353e-20 -1.31377e-20 1.30565e-20 1)
(0.704889 0.709318 1.66537e-21 -0.709318 0.704889 2.58354e-20 1.83329e-20 -1.82184e-20 1)
(0.704873 0.709333 -4.33295e-21 -0.709333 0.704873 1.85947e-20 1.31705e-20 -1.30877e-20 1)
(0.704867 0.709339 2.61935e-23 -0.709339 0.704867 1.47983e-20 1.04971e-20 -1.04309e-20 1)
(0.704868 0.709339 -6.49775e-22 -0.709339 0.704868 -1.48107e-20 -1.05087e-20 1.04424e-20 1)
(0.704874 0.709332 -2.87827e-21 -0.709332 0.704874 9.04505e-20 6.41466e-20 -6.37434e-20 1)
(0.70489 0.709317 6.82131e-23 -0.709317 0.70489 -1.66632e-22 -1.17893e-22 1.17157e-22 1)
(0.704918 0.709289 1.20099e-20 -0.709289 0.704918 1.2968e-19 9.20331e-20 -9.14659e-20 1)
(0.704952 0.709255 -2.31705e-20 -0.709255 0.704952 -1.03012e-19 -7.31616e-20 7.27176e-20 1)
(0.704993 0.709214 5.339e-22 -0.709214 0.704993 -4.60602e-22 -3.2441e-22 3.2248e-22 1)
(0.705046 0.709162 -4.31045e-21 -0.709162 0.705046 2.6284e-20 1.86219e-20 -1.85138e-20 1)
(0.705116 0.709092 1.98595e-20 -0.709092 0.705116 -2.55336e-20 -1.80266e-20 1.79255e-20 1)
(0.705197 0.709011 -5.94461e-21 -0.709011 0.705197 -1.57405e-19 -1.11625e-19 1.11024e-19 1)
(0.7053 0.708909 9.09351e-21 -0.708909 0.7053 1.30168e-19 9.23103e-20 -9.18404e-20 1)
(0.7054 0.708809 -6.11335e-22 -0.708809 0.7054 5.03372e-22 3.54714e-22 -3.53008e-22 1)
(0.705523 0.708687 -3.07024e-22 -0.708687 0.705523 -8.86441e-23 -6.37936e-23 6.35088e-23 1)
(0.705664 0.708547 1.30434e-20 -0.708547 0.705664 1.90112e-20 1.35079e-20 -1.3453e-20 1)
(0.705823 0.708388 2.72051e-22 -0.708388 0.705823 7.48565e-21 5.30345e-21 -5.28424e-21 1)
(0.705992 0.70822 -2.48395e-21 -0.70822 0.705992 3.05648e-20 2.16411e-20 -2.1573e-20 1)
(0.706179 0.708033 -1.85554e-21 -0.708033 0.706179 2.55302e-20 1.80728e-20 -1.80255e-20 1)
(0.706368 0.707844 -5.80315e-21 -0.707844 0.706368 -1.35479e-19 -9.59065e-20 9.57065e-20 1)
(0.706562 0.707651 5.01694e-21 -0.707651 0.706562 -4.827e-22 -3.36212e-22 3.35694e-22 1)
(0.706789 0.707425 2.04092e-21 -0.707425 0.706789 6.81892e-20 4.82401e-20 -4.81967e-20 1)
(0.706955 0.707258 -5.20125e-22 -0.707258 0.706955 1.23536e-20 8.73701e-21 -8.73327e-21 1)
(0.707086 0.707128 -5.41678e-25 -0.707128 0.707086 5.04466e-22 3.56722e-22 -3.567e-22 1)
(0.707254 0.706959 3.56707e-24 -0.706959 0.707254 -5.28834e-23 -3.73877e-23 3.74033e-23 1)
(0.707806 0.706407 3.58076e-23 -0.706407 0.707806 -2.21258e-20 -1.56298e-20 1.56608e-20 1)
(0.708061 0.706151 -9.51994e-22 -0.706151 0.708061 -4.50216e-24 -1.32345e-24 1.32703e-24 1)
(0.708295 0.705916 -3.25787e-23 -0.705916 0.708295 1.21968e-22 8.6177e-23 -8.64674e-23 1)
(0.708704 0.705506 1.06956e-20 -0.705506 0.708704 7.30472e-20 5.15013e-20 -5.17347e-20 1)
(0.709002 0.705207 1.10518e-20 -0.705207 0.709002 2.42257e-21 1.66632e-21 -1.67529e-21 1)
(0.709286 0.704921 1.23715e-20 -0.704921 0.709286 -9.73527e-22 -7.39944e-22 7.44525e-22 1)
(0.709579 0.704626 1.83142e-20 -0.704626 0.709579 -3.50606e-19 -2.47136e-19 2.48874e-19 1)
(0.709849 0.704354 3.49585e-23 -0.704354 0.709849 -1.25767e-21 -8.86038e-22 8.92951e-22 1)
(0.7101 0.704101 1.0182e-20 -0.704101 0.7101 -5.07951e-19 -3.57709e-19 3.60757e-19 1)
(0.710308 0.703891 -3.19511e-20 -0.703891 0.710308 1.13825e-20 8.21602e-21 -8.29093e-21 1)
(0.710493 0.703704 -5.01013e-20 -0.703704 0.710493 -1.49687e-19 -1.04998e-19 1.06011e-19 1)
(0.710652 0.703543 -1.88997e-20 -0.703543 0.710652 -1.47815e-19 -1.03861e-19 1.0491e-19 1)
(0.710781 0.703413 1.94642e-20 -0.703413 0.710781 -1.27302e-19 -8.96879e-20 9.06273e-20 1)
(0.710887 0.703306 1.00205e-19 -0.703306 0.710887 -2.18248e-19 -1.5425e-19 1.55913e-19 1)
(0.71096 0.703232 4.31583e-20 -0.703232 0.71096 -2.98776e-19 -2.10439e-19 2.12752e-19 1)
(0.711004 0.703188 -5.14533e-20 -0.703188 0.711004 3.0277e-19 2.13304e-19 -2.15675e-19 1)
(0.711025 0.703167 1.93775e-20 -0.703167 0.711025 -1.48048e-19 -1.04253e-19 1.05418e-19 1)
(0.711031 0.703161 -5.9248e-21 -0.703161 0.711031 1.4445e-21 1.06203e-21 -1.07391e-21 1)
(0.711005 0.703187 -6.92822e-21 -0.703187 0.711005 -1.72519e-20 -1.20776e-20 1.22119e-20 1)
(0.710959 0.703233 -2.0604e-20 -0.703233 0.710959 2.0708e-19 1.45784e-19 -1.47385e-19 1)
(0.71088 0.703314 8.11453e-20 -0.703314 0.71088 -1.73683e-19 -1.22763e-19 1.24083e-19 1)
(0.710797 0.703397 -1.14796e-20 -0.703397 0.710797 -1.86882e-19 -1.31368e-19 1.3275e-19 1)
(0.710694 0.703501 5.34846e-20 -0.703501 0.710694 -1.65109e-20 -1.19971e-20 1.21198e-20 1)
(0.710578 0.703619 6.14468e-20 -0.703619 0.710578 -1.33814e-21 -1.3658e-21 1.37931e-21 1)
(0.710449 0.703748 2.78994e-20 -0.703748 0.710449 -1.67108e-19 -1.17788e-19 1.18909e-19 1)
(0.71031 0.703889 -1.04381e-20 -0.703889 0.71031 2.44254e-20 1.72593e-20 -1.74167e-20 1)