/*--------------------------------*- C++ -*----------------------------------*\
| =========                 |                                                 |
| \\      /  F ield         | OpenFOAM: The Open Source CFD Toolbox           |
|  \\    /   O peration     | Version:  2306                                  |
|   \\  /    A nd           | Website:  www.openfoam.com                      |
|    \\/     M anipulation  |                                                 |
\*---------------------------------------------------------------------------*/
// * * * * * * * * * * * * * * * * * * * * * * * * * * * * * * * * * * * * * //
FoamFile
{
    version         2;
    format          ascii;
    class           volSymmTensorField;
    location        "0";
    object          Rdns;
}

dimensions      [ 0 2 -2 0 0 0 0 ];

internalField   nonuniform List<symmTensor> 
14751
(
(6.73174e-07 8.32033e-09 0 7.44535e-10 0 2.36996e-07)
(6.73468e-07 8.4553e-09 0 7.59494e-10 0 2.40232e-07)
(6.7385e-07 8.59272e-09 0 7.75158e-10 0 2.43413e-07)
(6.74144e-07 8.73011e-09 0 7.9342e-10 0 2.46496e-07)
(6.74774e-07 8.85854e-09 0 8.13404e-10 0 2.49566e-07)
(6.76048e-07 9.01187e-09 0 8.38039e-10 0 2.52918e-07)
(6.77239e-07 9.15819e-09 0 8.64423e-10 0 2.56369e-07)
(6.7841e-07 9.28953e-09 0 8.89563e-10 0 2.59866e-07)
(6.79853e-07 9.42334e-09 0 9.17637e-10 0 2.63488e-07)
(6.80888e-07 9.57145e-09 0 9.46566e-10 0 2.67245e-07)
(6.81172e-07 9.68026e-09 0 9.75321e-10 0 2.70739e-07)
(6.8133e-07 9.76731e-09 0 1.00275e-09 0 2.74018e-07)
(6.81772e-07 9.82614e-09 0 1.02884e-09 0 2.77061e-07)
(6.82934e-07 9.89417e-09 0 1.05372e-09 0 2.80017e-07)
(6.84894e-07 9.95946e-09 0 1.08057e-09 0 2.82716e-07)
(6.872e-07 1.00463e-08 0 1.10551e-09 0 2.85267e-07)
(6.89501e-07 1.01115e-08 0 1.13181e-09 0 2.87891e-07)
(6.92053e-07 1.01976e-08 0 1.15885e-09 0 2.90452e-07)
(6.94339e-07 1.025e-08 0 1.19133e-09 0 2.93033e-07)
(6.97143e-07 1.02859e-08 0 1.22029e-09 0 2.95636e-07)
(7.00522e-07 1.02962e-08 0 1.24307e-09 0 2.98204e-07)
(7.04973e-07 1.03316e-08 0 1.271e-09 0 3.00793e-07)
(7.09602e-07 1.03726e-08 0 1.2959e-09 0 3.03264e-07)
(7.14513e-07 1.04207e-08 0 1.32369e-09 0 3.05962e-07)
(7.1925e-07 1.04859e-08 0 1.35242e-09 0 3.08397e-07)
(7.24072e-07 1.05159e-08 0 1.37569e-09 0 3.09869e-07)
(7.29183e-07 1.05555e-08 0 1.3996e-09 0 3.12059e-07)
(7.34545e-07 1.06164e-08 0 1.43098e-09 0 3.14442e-07)
(7.38877e-07 1.06711e-08 0 1.45945e-09 0 3.16441e-07)
(7.42471e-07 1.06668e-08 0 1.48404e-09 0 3.18149e-07)
(7.45932e-07 1.0635e-08 0 1.49885e-09 0 3.19518e-07)
(7.494e-07 1.05837e-08 0 1.51386e-09 0 3.20604e-07)
(7.54464e-07 1.05702e-08 0 1.53774e-09 0 3.21938e-07)
(7.59112e-07 1.06205e-08 0 1.56602e-09 0 3.23312e-07)
(7.61581e-07 1.05824e-08 0 1.58608e-09 0 3.239e-07)
(7.63631e-07 1.04549e-08 0 1.58717e-09 0 3.23535e-07)
(7.66557e-07 1.03452e-08 0 1.58566e-09 0 3.22661e-07)
(7.68844e-07 1.02734e-08 0 1.59029e-09 0 3.22106e-07)
(7.71186e-07 1.01548e-08 0 1.59099e-09 0 3.20905e-07)
(7.74105e-07 1.00827e-08 0 1.5921e-09 0 3.195e-07)
(7.76052e-07 1.0075e-08 0 1.60159e-09 0 3.18341e-07)
(7.766e-07 9.95031e-09 0 1.5955e-09 0 3.168e-07)
(7.77051e-07 9.82179e-09 0 1.58969e-09 0 3.1449e-07)
(7.7724e-07 9.69162e-09 0 1.57826e-09 0 3.11398e-07)
(7.75839e-07 9.51654e-09 0 1.55736e-09 0 3.07875e-07)
(7.75106e-07 9.26802e-09 0 1.52954e-09 0 3.03446e-07)
(7.74565e-07 9.16272e-09 0 1.49883e-09 0 2.98995e-07)
(7.7216e-07 9.02392e-09 0 1.47471e-09 0 2.9422e-07)
(7.69016e-07 8.864e-09 0 1.44704e-09 0 2.89481e-07)
(7.64904e-07 8.68214e-09 0 1.41819e-09 0 2.84615e-07)
(7.59964e-07 8.46295e-09 0 1.39261e-09 0 2.79514e-07)
(7.55872e-07 8.28943e-09 0 1.36868e-09 0 2.74446e-07)
(7.50122e-07 8.1271e-09 0 1.32678e-09 0 2.69047e-07)
(7.44023e-07 7.91208e-09 0 1.2772e-09 0 2.6337e-07)
(7.38147e-07 7.74923e-09 0 1.23996e-09 0 2.58419e-07)
(7.31327e-07 7.52592e-09 0 1.20256e-09 0 2.5336e-07)
(7.25195e-07 7.27193e-09 0 1.14935e-09 0 2.47701e-07)
(7.20054e-07 7.07005e-09 0 1.1048e-09 0 2.42404e-07)
(7.15584e-07 6.95085e-09 0 1.06407e-09 0 2.37738e-07)
(7.10544e-07 6.84799e-09 0 1.03326e-09 0 2.33406e-07)
(7.04676e-07 6.70334e-09 0 9.92918e-10 0 2.28984e-07)
(6.98412e-07 6.52611e-09 0 9.55007e-10 0 2.24211e-07)
(6.93302e-07 6.37481e-09 0 9.25872e-10 0 2.19979e-07)
(6.89224e-07 6.28869e-09 0 9.00359e-10 0 2.16366e-07)
(6.85372e-07 6.16198e-09 0 8.6194e-10 0 2.12761e-07)
(6.81904e-07 6.0929e-09 0 8.29242e-10 0 2.09419e-07)
(6.78442e-07 6.03652e-09 0 8.06646e-10 0 2.06383e-07)
(6.75651e-07 5.9823e-09 0 7.7595e-10 0 2.03573e-07)
(6.72614e-07 5.99541e-09 0 7.58686e-10 0 2.01615e-07)
(6.68557e-07 5.92668e-09 0 7.3485e-10 0 1.9977e-07)
(6.65256e-07 5.87388e-09 0 7.13446e-10 0 1.98028e-07)
(6.62876e-07 5.84687e-09 0 6.99472e-10 0 1.96653e-07)
(6.60924e-07 5.84851e-09 0 6.88228e-10 0 1.95737e-07)
(6.59222e-07 5.8251e-09 0 6.82646e-10 0 1.95257e-07)
(6.58671e-07 5.82823e-09 0 6.65611e-10 0 1.94885e-07)
(6.58169e-07 5.87043e-09 0 6.52123e-10 0 1.94728e-07)
(6.57804e-07 5.89032e-09 0 6.43269e-10 0 1.94633e-07)
(6.58238e-07 5.94077e-09 0 6.38311e-10 0 1.94915e-07)
(6.59112e-07 6.00543e-09 0 6.3581e-10 0 1.95522e-07)
(6.59873e-07 6.08074e-09 0 6.33164e-10 0 1.96232e-07)
(6.60463e-07 6.13624e-09 0 6.27346e-10 0 1.96893e-07)
(6.61052e-07 6.22375e-09 0 6.22271e-10 0 1.97846e-07)
(6.61211e-07 6.27497e-09 0 6.1811e-10 0 1.98624e-07)
(6.61798e-07 6.33249e-09 0 6.12505e-10 0 1.99508e-07)
(6.62608e-07 6.41591e-09 0 6.11915e-10 0 2.00582e-07)
(6.63241e-07 6.51102e-09 0 6.10339e-10 0 2.01954e-07)
(6.63957e-07 6.60028e-09 0 6.10885e-10 0 2.03471e-07)
(6.65069e-07 6.6875e-09 0 6.14505e-10 0 2.05173e-07)
(6.66691e-07 6.80453e-09 0 6.19437e-10 0 2.07339e-07)
(6.68226e-07 6.9382e-09 0 6.2654e-10 0 2.09784e-07)
(6.69537e-07 7.0717e-09 0 6.34087e-10 0 2.12313e-07)
(6.70541e-07 7.20416e-09 0 6.43832e-10 0 2.14775e-07)
(6.71528e-07 7.32963e-09 0 6.53899e-10 0 2.17272e-07)
(6.72421e-07 7.48639e-09 0 6.64245e-10 0 2.19972e-07)
(6.72861e-07 7.62618e-09 0 6.75895e-10 0 2.22574e-07)
(6.73145e-07 7.78324e-09 0 6.87672e-10 0 2.25158e-07)
(6.72969e-07 7.93694e-09 0 7.01414e-10 0 2.27906e-07)
(6.72834e-07 8.06455e-09 0 7.14154e-10 0 2.30737e-07)
(6.72843e-07 8.18268e-09 0 7.27305e-10 0 2.33767e-07)
(2.04982e-06 2.53352e-08 0 2.26709e-09 0 7.2165e-07)
(2.05071e-06 2.57465e-08 0 2.31267e-09 0 7.31508e-07)
(2.05524e-06 2.6208e-08 0 2.36425e-09 0 7.42414e-07)
(2.05951e-06 2.66705e-08 0 2.42391e-09 0 7.53046e-07)
(2.06144e-06 2.70628e-08 0 2.48495e-09 0 7.62424e-07)
(2.06871e-06 2.75765e-08 0 2.56443e-09 0 7.73933e-07)
(2.07574e-06 2.807e-08 0 2.64949e-09 0 7.85776e-07)
(2.08272e-06 2.85191e-08 0 2.731e-09 0 7.97795e-07)
(2.09055e-06 2.89769e-08 0 2.82175e-09 0 8.10227e-07)
(2.09714e-06 2.94803e-08 0 2.91548e-09 0 8.2312e-07)
(2.10142e-06 2.98638e-08 0 3.00891e-09 0 8.35235e-07)
(2.10531e-06 3.01812e-08 0 3.09857e-09 0 8.46724e-07)
(2.11008e-06 3.0412e-08 0 3.18431e-09 0 8.57509e-07)
(2.1171e-06 3.0672e-08 0 3.26656e-09 0 8.68055e-07)
(2.1266e-06 3.09244e-08 0 3.35526e-09 0 8.77841e-07)
(2.1372e-06 3.12442e-08 0 3.43819e-09 0 8.87187e-07)
(2.14435e-06 3.1447e-08 0 3.52001e-09 0 8.95349e-07)
(2.15902e-06 3.19731e-08 0 3.65901e-09 0 9.05411e-07)
(2.17478e-06 3.25169e-08 0 3.84615e-09 0 9.15934e-07)
(2.19222e-06 3.30112e-08 0 4.02596e-09 0 9.26541e-07)
(2.21157e-06 3.34266e-08 0 4.18988e-09 0 9.37066e-07)
(2.22556e-06 3.354e-08 0 4.2818e-09 0 9.45152e-07)
(2.24898e-06 3.40553e-08 0 4.45785e-09 0 9.55408e-07)
(2.27333e-06 3.45938e-08 0 4.64516e-09 0 9.66381e-07)
(2.28842e-06 3.48062e-08 0 4.74542e-09 0 9.74e-07)
(2.31263e-06 3.52896e-08 0 4.92154e-09 0 9.81151e-07)
(2.3379e-06 3.58063e-08 0 5.10427e-09 0 9.90556e-07)
(2.35496e-06 3.60029e-08 0 5.21552e-09 0 9.98001e-07)
(2.37795e-06 3.65683e-08 0 5.4173e-09 0 1.0068e-06)
(2.38957e-06 3.6557e-08 0 5.5064e-09 0 1.01215e-06)
(2.40999e-06 3.68459e-08 0 5.66464e-09 0 1.019e-06)
(2.42139e-06 3.66796e-08 0 5.7222e-09 0 1.02239e-06)
(2.43763e-06 3.66303e-08 0 5.80746e-09 0 1.02654e-06)
(2.46204e-06 3.71808e-08 0 6.01781e-09 0 1.03336e-06)
(2.47013e-06 3.7049e-08 0 6.08728e-09 0 1.03514e-06)
(2.47696e-06 3.66104e-08 0 6.09163e-09 0 1.03392e-06)
(2.49591e-06 3.66157e-08 0 6.19279e-09 0 1.03365e-06)
(2.50355e-06 3.63633e-08 0 6.20793e-09 0 1.03176e-06)
(2.51124e-06 3.59568e-08 0 6.2085e-09 0 1.02787e-06)
(2.52068e-06 3.57009e-08 0 6.20863e-09 0 1.02335e-06)
(2.53681e-06 3.60272e-08 0 6.34689e-09 0 1.02201e-06)
(2.53879e-06 3.55996e-08 0 6.32324e-09 0 1.017e-06)
(2.54048e-06 3.51351e-08 0 6.29477e-09 0 1.00947e-06)
(2.54124e-06 3.46676e-08 0 6.24455e-09 0 9.99514e-07)
(2.53703e-06 3.40749e-08 0 6.16274e-09 0 9.88258e-07)
(2.53481e-06 3.32227e-08 0 6.05184e-09 0 9.74094e-07)
(2.53316e-06 3.28271e-08 0 5.9314e-09 0 9.5981e-07)
(2.52562e-06 3.2334e-08 0 5.83252e-09 0 9.4451e-07)
(2.51564e-06 3.17609e-08 0 5.71946e-09 0 9.29205e-07)
(2.50264e-06 3.11297e-08 0 5.60548e-09 0 9.13587e-07)
(2.48687e-06 3.03638e-08 0 5.49963e-09 0 8.97198e-07)
(2.47371e-06 2.97492e-08 0 5.40117e-09 0 8.80987e-07)
(2.45539e-06 2.91756e-08 0 5.23839e-09 0 8.63719e-07)
(2.43599e-06 2.84412e-08 0 5.05244e-09 0 8.45652e-07)
(2.41707e-06 2.78535e-08 0 4.8993e-09 0 8.29752e-07)
(2.39531e-06 2.70771e-08 0 4.75253e-09 0 8.13597e-07)
(2.37578e-06 2.62011e-08 0 4.55064e-09 0 7.9564e-07)
(2.35943e-06 2.55166e-08 0 4.38269e-09 0 7.78826e-07)
(2.34502e-06 2.50788e-08 0 4.22112e-09 0 7.63898e-07)
(2.31955e-06 2.44475e-08 0 4.02852e-09 0 7.48211e-07)
(2.30071e-06 2.39482e-08 0 3.87182e-09 0 7.34105e-07)
(2.28067e-06 2.33434e-08 0 3.72818e-09 0 7.18942e-07)
(2.26426e-06 2.28192e-08 0 3.61496e-09 0 7.05498e-07)
(2.24203e-06 2.22601e-08 0 3.45322e-09 0 6.92246e-07)
(2.22973e-06 2.18342e-08 0 3.31241e-09 0 6.8083e-07)
(2.21866e-06 2.15959e-08 0 3.18983e-09 0 6.70259e-07)
(2.19857e-06 2.11596e-08 0 3.04708e-09 0 6.58929e-07)
(2.18961e-06 2.09786e-08 0 2.93566e-09 0 6.50083e-07)
(2.17987e-06 2.10166e-08 0 2.87066e-09 0 6.43924e-07)
(2.15794e-06 2.05483e-08 0 2.7309e-09 0 6.36422e-07)
(2.14741e-06 2.03732e-08 0 2.65357e-09 0 6.30975e-07)
(2.13088e-06 2.00408e-08 0 2.55377e-09 0 6.24975e-07)
(2.12465e-06 2.0044e-08 0 2.51294e-09 0 6.22137e-07)
(2.11035e-06 1.97304e-08 0 2.44278e-09 0 6.18967e-07)
(2.09969e-06 1.95005e-08 0 2.33728e-09 0 6.16127e-07)
(2.09812e-06 1.96386e-08 0 2.29212e-09 0 6.15669e-07)
(2.0881e-06 1.94625e-08 0 2.21551e-09 0 6.13687e-07)
(2.08057e-06 1.9382e-08 0 2.15258e-09 0 6.12872e-07)
(2.08328e-06 1.95916e-08 0 2.14427e-09 0 6.14799e-07)
(2.07677e-06 1.95835e-08 0 2.09009e-09 0 6.15285e-07)
(2.06973e-06 1.95085e-08 0 2.02608e-09 0 6.15594e-07)
(2.0627e-06 1.95292e-08 0 1.96491e-09 0 6.16794e-07)
(2.05636e-06 1.95151e-08 0 1.92234e-09 0 6.17719e-07)
(2.05488e-06 1.96622e-08 0 1.90183e-09 0 6.19469e-07)
(2.05408e-06 1.98891e-08 0 1.89695e-09 0 6.21799e-07)
(2.05273e-06 2.01514e-08 0 1.889e-09 0 6.25045e-07)
(2.05494e-06 2.04277e-08 0 1.89068e-09 0 6.29738e-07)
(2.05506e-06 2.06641e-08 0 1.89881e-09 0 6.3398e-07)
(2.05674e-06 2.09917e-08 0 1.91095e-09 0 6.39635e-07)
(2.05813e-06 2.13694e-08 0 1.92973e-09 0 6.46129e-07)
(2.05882e-06 2.17452e-08 0 1.94981e-09 0 6.52858e-07)
(2.05856e-06 2.21166e-08 0 1.97655e-09 0 6.59357e-07)
(2.05823e-06 2.24651e-08 0 2.00419e-09 0 6.65934e-07)
(2.05761e-06 2.29082e-08 0 2.03258e-09 0 6.73112e-07)
(2.05558e-06 2.32978e-08 0 2.06484e-09 0 6.79958e-07)
(2.05309e-06 2.37387e-08 0 2.09739e-09 0 6.86729e-07)
(2.04919e-06 2.41679e-08 0 2.1358e-09 0 6.93973e-07)
(2.04878e-06 2.45565e-08 0 2.1746e-09 0 7.02593e-07)
(2.04881e-06 2.49163e-08 0 2.21464e-09 0 7.1182e-07)
(5.67209e-06 1.6058e-07 0 2.51389e-08 0 1.63356e-06)
(5.67361e-06 1.63143e-07 0 2.57403e-08 0 1.65566e-06)
(5.69202e-06 1.66145e-07 0 2.6424e-08 0 1.6809e-06)
(5.70029e-06 1.68887e-07 0 2.71588e-08 0 1.70425e-06)
(5.71959e-06 1.71753e-07 0 2.79913e-08 0 1.72948e-06)
(5.74301e-06 1.74869e-07 0 2.89596e-08 0 1.75594e-06)
(5.76836e-06 1.78113e-07 0 2.9996e-08 0 1.78283e-06)
(5.80422e-06 1.815e-07 0 3.10932e-08 0 1.81245e-06)
(5.8341e-06 1.84586e-07 0 3.21721e-08 0 1.8404e-06)
(5.87177e-06 1.88149e-07 0 3.33235e-08 0 1.87005e-06)
(5.90733e-06 1.91431e-07 0 3.45164e-08 0 1.89881e-06)
(5.93448e-06 1.94162e-07 0 3.5655e-08 0 1.92409e-06)
(5.97217e-06 1.96967e-07 0 3.67985e-08 0 1.94994e-06)
(6.012e-06 1.99562e-07 0 3.79171e-08 0 1.97496e-06)
(6.04803e-06 2.01742e-07 0 3.90206e-08 0 1.99609e-06)
(6.09647e-06 2.04391e-07 0 4.02145e-08 0 2.01958e-06)
(6.13821e-06 2.06566e-07 0 4.13309e-08 0 2.04028e-06)
(6.19083e-06 2.092e-07 0 4.26376e-08 0 2.06352e-06)
(6.23538e-06 2.1111e-07 0 4.38694e-08 0 2.08375e-06)
(6.28526e-06 2.1287e-07 0 4.50639e-08 0 2.10399e-06)
(6.34131e-06 2.14331e-07 0 4.61491e-08 0 2.1244e-06)
(6.40204e-06 2.16083e-07 0 4.72591e-08 0 2.14443e-06)
(6.45726e-06 2.17408e-07 0 4.82588e-08 0 2.16175e-06)
(6.52343e-06 2.19158e-07 0 4.94659e-08 0 2.18266e-06)
(6.58348e-06 2.20904e-07 0 5.06016e-08 0 2.19879e-06)
(6.65037e-06 2.22518e-07 0 5.16821e-08 0 2.21354e-06)
(6.71055e-06 2.23862e-07 0 5.27288e-08 0 2.22819e-06)
(6.77007e-06 2.25283e-07 0 5.39176e-08 0 2.24274e-06)
(6.82753e-06 2.26618e-07 0 5.49874e-08 0 2.25562e-06)
(6.88298e-06 2.27454e-07 0 5.59784e-08 0 2.26821e-06)
(6.93807e-06 2.28056e-07 0 5.67156e-08 0 2.27888e-06)
(6.98592e-06 2.27963e-07 0 5.73646e-08 0 2.28499e-06)
(7.046e-06 2.28299e-07 0 5.82301e-08 0 2.29451e-06)
(7.09655e-06 2.29129e-07 0 5.91398e-08 0 2.30034e-06)
(7.13576e-06 2.28741e-07 0 5.97081e-08 0 2.30229e-06)
(7.17138e-06 2.26917e-07 0 5.98658e-08 0 2.29997e-06)
(7.21853e-06 2.25506e-07 0 5.99563e-08 0 2.29708e-06)
(7.25633e-06 2.24498e-07 0 6.01099e-08 0 2.2913e-06)
(7.28166e-06 2.22474e-07 0 6.00473e-08 0 2.28068e-06)
(7.31815e-06 2.21103e-07 0 6.00139e-08 0 2.27137e-06)
(7.35053e-06 2.20706e-07 0 6.01853e-08 0 2.26187e-06)
(7.37307e-06 2.19084e-07 0 6.00833e-08 0 2.25082e-06)
(7.38497e-06 2.16336e-07 0 5.96931e-08 0 2.23122e-06)
(7.40249e-06 2.13646e-07 0 5.9176e-08 0 2.21018e-06)
(7.40537e-06 2.10868e-07 0 5.8331e-08 0 2.18535e-06)
(7.40496e-06 2.0679e-07 0 5.72289e-08 0 2.1556e-06)
(7.41444e-06 2.04074e-07 0 5.62127e-08 0 2.12611e-06)
(7.40428e-06 2.01083e-07 0 5.51381e-08 0 2.09281e-06)
(7.38719e-06 1.97768e-07 0 5.40602e-08 0 2.05735e-06)
(7.36602e-06 1.9454e-07 0 5.29848e-08 0 2.02276e-06)
(7.33659e-06 1.90892e-07 0 5.19653e-08 0 1.98805e-06)
(7.30618e-06 1.87118e-07 0 5.09056e-08 0 1.95414e-06)
(7.27056e-06 1.83816e-07 0 4.94538e-08 0 1.91799e-06)
(7.22213e-06 1.798e-07 0 4.77326e-08 0 1.8794e-06)
(7.1799e-06 1.76277e-07 0 4.62298e-08 0 1.84554e-06)
(7.13662e-06 1.72234e-07 0 4.48576e-08 0 1.81275e-06)
(7.08933e-06 1.67601e-07 0 4.31141e-08 0 1.77869e-06)
(7.05677e-06 1.64317e-07 0 4.16181e-08 0 1.7466e-06)
(7.01537e-06 1.61301e-07 0 4.01569e-08 0 1.71556e-06)
(6.97181e-06 1.59038e-07 0 3.89095e-08 0 1.68718e-06)
(6.92117e-06 1.56359e-07 0 3.74666e-08 0 1.65771e-06)
(6.87725e-06 1.5348e-07 0 3.62021e-08 0 1.62907e-06)
(6.82937e-06 1.50357e-07 0 3.50342e-08 0 1.60158e-06)
(6.78949e-06 1.48087e-07 0 3.39395e-08 0 1.57845e-06)
(6.74394e-06 1.45658e-07 0 3.26767e-08 0 1.55402e-06)
(6.71058e-06 1.44056e-07 0 3.15055e-08 0 1.53342e-06)
(6.67917e-06 1.42951e-07 0 3.05808e-08 0 1.51513e-06)
(6.63791e-06 1.41649e-07 0 2.95464e-08 0 1.49761e-06)
(6.60455e-06 1.41302e-07 0 2.8852e-08 0 1.48636e-06)
(6.55867e-06 1.40111e-07 0 2.8012e-08 0 1.47491e-06)
(6.51462e-06 1.38828e-07 0 2.72042e-08 0 1.46451e-06)
(6.47652e-06 1.37818e-07 0 2.65977e-08 0 1.45597e-06)
(6.44256e-06 1.37243e-07 0 2.60889e-08 0 1.45049e-06)
(6.41251e-06 1.3675e-07 0 2.56895e-08 0 1.44788e-06)
(6.37967e-06 1.36214e-07 0 2.50978e-08 0 1.44424e-06)
(6.35907e-06 1.36543e-07 0 2.4654e-08 0 1.44327e-06)
(6.33053e-06 1.36401e-07 0 2.42533e-08 0 1.44157e-06)
(6.31349e-06 1.36948e-07 0 2.39821e-08 0 1.44377e-06)
(6.2889e-06 1.37505e-07 0 2.37683e-08 0 1.44575e-06)
(6.26384e-06 1.38168e-07 0 2.35618e-08 0 1.44809e-06)
(6.23833e-06 1.38626e-07 0 2.32814e-08 0 1.45015e-06)
(6.20348e-06 1.39187e-07 0 2.29889e-08 0 1.45158e-06)
(6.17581e-06 1.39649e-07 0 2.27826e-08 0 1.45492e-06)
(6.13983e-06 1.40033e-07 0 2.25131e-08 0 1.45727e-06)
(6.11293e-06 1.40847e-07 0 2.23659e-08 0 1.46219e-06)
(6.07663e-06 1.41519e-07 0 2.22264e-08 0 1.4667e-06)
(6.04922e-06 1.42409e-07 0 2.21711e-08 0 1.47418e-06)
(6.01531e-06 1.42966e-07 0 2.21296e-08 0 1.48127e-06)
(5.98429e-06 1.44015e-07 0 2.21278e-08 0 1.49015e-06)
(5.95238e-06 1.4516e-07 0 2.22148e-08 0 1.49943e-06)
(5.91784e-06 1.46365e-07 0 2.2323e-08 0 1.50943e-06)
(5.89e-06 1.47861e-07 0 2.25226e-08 0 1.52064e-06)
(5.85136e-06 1.48864e-07 0 2.26935e-08 0 1.52987e-06)
(5.81182e-06 1.50185e-07 0 2.28777e-08 0 1.53987e-06)
(5.77831e-06 1.51677e-07 0 2.31225e-08 0 1.55165e-06)
(5.74307e-06 1.53089e-07 0 2.33717e-08 0 1.56323e-06)
(5.71518e-06 1.54821e-07 0 2.37166e-08 0 1.57831e-06)
(5.69657e-06 1.56679e-07 0 2.41379e-08 0 1.59552e-06)
(5.67896e-06 1.58417e-07 0 2.45717e-08 0 1.61337e-06)
(9.59283e-06 3.65883e-07 0 6.82293e-08 0 2.60571e-06)
(9.58277e-06 3.71439e-07 0 7.00833e-08 0 2.63881e-06)
(9.59965e-06 3.78315e-07 0 7.22594e-08 0 2.67693e-06)
(9.61672e-06 3.84894e-07 0 7.45368e-08 0 2.71425e-06)
(9.6445e-06 3.91897e-07 0 7.71805e-08 0 2.75419e-06)
(9.67942e-06 3.99061e-07 0 8.00477e-08 0 2.79473e-06)
(9.7375e-06 4.07791e-07 0 8.34171e-08 0 2.83996e-06)
(9.79247e-06 4.15636e-07 0 8.66492e-08 0 2.88354e-06)
(9.86151e-06 4.24428e-07 0 9.03075e-08 0 2.93044e-06)
(9.92581e-06 4.32872e-07 0 9.38073e-08 0 2.97365e-06)
(9.99926e-06 4.41484e-07 0 9.73508e-08 0 3.01655e-06)
(1.00741e-05 4.49944e-07 0 1.01122e-07 0 3.05722e-06)
(1.01512e-05 4.57845e-07 0 1.0477e-07 0 3.09593e-06)
(1.02322e-05 4.65406e-07 0 1.08437e-07 0 3.13289e-06)
(1.03191e-05 4.72727e-07 0 1.12246e-07 0 3.16829e-06)
(1.04032e-05 4.79086e-07 0 1.15766e-07 0 3.20116e-06)
(1.04927e-05 4.85471e-07 0 1.19489e-07 0 3.2334e-06)
(1.0588e-05 4.91712e-07 0 1.23473e-07 0 3.26527e-06)
(1.0687e-05 4.97811e-07 0 1.273e-07 0 3.2969e-06)
(1.07969e-05 5.03655e-07 0 1.31196e-07 0 3.32755e-06)
(1.09059e-05 5.08393e-07 0 1.34447e-07 0 3.35522e-06)
(1.10264e-05 5.1361e-07 0 1.37848e-07 0 3.38303e-06)
(1.11502e-05 5.18755e-07 0 1.41216e-07 0 3.41004e-06)
(1.12786e-05 5.23985e-07 0 1.44917e-07 0 3.43785e-06)
(1.14036e-05 5.29272e-07 0 1.48416e-07 0 3.46035e-06)
(1.15271e-05 5.33732e-07 0 1.51747e-07 0 3.47963e-06)
(1.1651e-05 5.38092e-07 0 1.55186e-07 0 3.50052e-06)
(1.17665e-05 5.419e-07 0 1.58544e-07 0 3.51681e-06)
(1.18908e-05 5.46053e-07 0 1.61624e-07 0 3.53419e-06)
(1.20093e-05 5.49291e-07 0 1.64474e-07 0 3.54983e-06)
(1.21195e-05 5.51452e-07 0 1.66591e-07 0 3.56122e-06)
(1.2241e-05 5.53769e-07 0 1.68908e-07 0 3.57224e-06)
(1.23549e-05 5.55054e-07 0 1.71055e-07 0 3.58075e-06)
(1.24693e-05 5.57368e-07 0 1.73365e-07 0 3.5868e-06)
(1.25775e-05 5.58035e-07 0 1.74975e-07 0 3.58817e-06)
(1.267e-05 5.56082e-07 0 1.75467e-07 0 3.58287e-06)
(1.27711e-05 5.53572e-07 0 1.75623e-07 0 3.57506e-06)
(1.28583e-05 5.52085e-07 0 1.75946e-07 0 3.56285e-06)
(1.29423e-05 5.49535e-07 0 1.76086e-07 0 3.54779e-06)
(1.30161e-05 5.46021e-07 0 1.75596e-07 0 3.5292e-06)
(1.30961e-05 5.45054e-07 0 1.75648e-07 0 3.51189e-06)
(1.31597e-05 5.42172e-07 0 1.75056e-07 0 3.48934e-06)
(1.32176e-05 5.37278e-07 0 1.73906e-07 0 3.45956e-06)
(1.32713e-05 5.31417e-07 0 1.71867e-07 0 3.42522e-06)
(1.33179e-05 5.26395e-07 0 1.6936e-07 0 3.38972e-06)
(1.33572e-05 5.19758e-07 0 1.66454e-07 0 3.34861e-06)
(1.33896e-05 5.13156e-07 0 1.63461e-07 0 3.30199e-06)
(1.33972e-05 5.06699e-07 0 1.60276e-07 0 3.2519e-06)
(1.33972e-05 4.99572e-07 0 1.57076e-07 0 3.1986e-06)
(1.33925e-05 4.92842e-07 0 1.53866e-07 0 3.14529e-06)
(1.33739e-05 4.85754e-07 0 1.50857e-07 0 3.09443e-06)
(1.33469e-05 4.77306e-07 0 1.47444e-07 0 3.04539e-06)
(1.33158e-05 4.6989e-07 0 1.43491e-07 0 2.99397e-06)
(1.32677e-05 4.62041e-07 0 1.38932e-07 0 2.94131e-06)
(1.32131e-05 4.54175e-07 0 1.34546e-07 0 2.89195e-06)
(1.3155e-05 4.45177e-07 0 1.30288e-07 0 2.84344e-06)
(1.30999e-05 4.35818e-07 0 1.25905e-07 0 2.79905e-06)
(1.30485e-05 4.28322e-07 0 1.21693e-07 0 2.75403e-06)
(1.29972e-05 4.21769e-07 0 1.1781e-07 0 2.71353e-06)
(1.29328e-05 4.16446e-07 0 1.14053e-07 0 2.67365e-06)
(1.28697e-05 4.11202e-07 0 1.10269e-07 0 2.63554e-06)
(1.279e-05 4.04897e-07 0 1.06751e-07 0 2.5954e-06)
(1.27121e-05 3.97955e-07 0 1.03342e-07 0 2.55896e-06)
(1.26285e-05 3.91548e-07 0 9.98383e-08 0 2.52595e-06)
(1.25628e-05 3.86666e-07 0 9.66202e-08 0 2.49665e-06)
(1.24892e-05 3.82313e-07 0 9.33476e-08 0 2.46794e-06)
(1.24158e-05 3.79109e-07 0 9.05487e-08 0 2.44315e-06)
(1.23379e-05 3.76038e-07 0 8.78434e-08 0 2.42319e-06)
(1.22482e-05 3.73391e-07 0 8.55442e-08 0 2.40702e-06)
(1.2168e-05 3.71177e-07 0 8.3369e-08 0 2.39536e-06)
(1.20767e-05 3.67807e-07 0 8.11738e-08 0 2.38332e-06)
(1.19804e-05 3.6424e-07 0 7.91492e-08 0 2.37266e-06)
(1.18995e-05 3.62101e-07 0 7.75378e-08 0 2.36848e-06)
(1.18174e-05 3.59941e-07 0 7.61706e-08 0 2.3657e-06)
(1.17386e-05 3.58129e-07 0 7.45772e-08 0 2.36434e-06)
(1.16665e-05 3.57372e-07 0 7.32042e-08 0 2.36386e-06)
(1.15868e-05 3.56216e-07 0 7.19653e-08 0 2.36334e-06)
(1.15078e-05 3.55575e-07 0 7.09229e-08 0 2.36578e-06)
(1.14284e-05 3.5546e-07 0 7.00948e-08 0 2.36944e-06)
(1.13485e-05 3.5533e-07 0 6.93286e-08 0 2.37326e-06)
(1.12565e-05 3.54747e-07 0 6.82863e-08 0 2.37579e-06)
(1.11654e-05 3.54317e-07 0 6.73431e-08 0 2.37895e-06)
(1.10738e-05 3.53682e-07 0 6.65151e-08 0 2.38316e-06)
(1.09726e-05 3.52601e-07 0 6.56101e-08 0 2.38534e-06)
(1.08787e-05 3.52467e-07 0 6.49552e-08 0 2.39151e-06)
(1.07747e-05 3.52029e-07 0 6.43395e-08 0 2.39736e-06)
(1.06717e-05 3.51359e-07 0 6.38227e-08 0 2.40427e-06)
(1.0571e-05 3.50613e-07 0 6.34435e-08 0 2.4134e-06)
(1.04766e-05 3.50568e-07 0 6.31162e-08 0 2.42338e-06)
(1.03785e-05 3.51251e-07 0 6.30895e-08 0 2.43527e-06)
(1.02803e-05 3.51653e-07 0 6.30711e-08 0 2.44658e-06)
(1.01799e-05 3.52012e-07 0 6.3115e-08 0 2.45668e-06)
(1.00789e-05 3.51865e-07 0 6.31564e-08 0 2.46626e-06)
(9.98294e-06 3.52835e-07 0 6.34263e-08 0 2.47938e-06)
(9.88638e-06 3.53594e-07 0 6.36812e-08 0 2.49215e-06)
(9.79652e-06 3.5468e-07 0 6.4101e-08 0 2.50762e-06)
(9.71811e-06 3.56137e-07 0 6.46452e-08 0 2.52596e-06)
(9.66711e-06 3.59085e-07 0 6.56807e-08 0 2.55112e-06)
(9.62829e-06 3.62419e-07 0 6.68879e-08 0 2.57869e-06)
(1.3488e-05 6.39745e-07 0 1.36944e-07 0 3.60872e-06)
(1.34497e-05 6.47822e-07 0 1.40587e-07 0 3.64877e-06)
(1.34393e-05 6.5862e-07 0 1.45364e-07 0 3.69686e-06)
(1.34356e-05 6.69498e-07 0 1.50643e-07 0 3.74628e-06)
(1.3438e-05 6.8e-07 0 1.56155e-07 0 3.79587e-06)
(1.34616e-05 6.91825e-07 0 1.6258e-07 0 3.84962e-06)
(1.35034e-05 7.0484e-07 0 1.69542e-07 0 3.90482e-06)
(1.35618e-05 7.18398e-07 0 1.76955e-07 0 3.9625e-06)
(1.36252e-05 7.31562e-07 0 1.8415e-07 0 4.01825e-06)
(1.37042e-05 7.45981e-07 0 1.91969e-07 0 4.07396e-06)
(1.37908e-05 7.60554e-07 0 1.99799e-07 0 4.12612e-06)
(1.38863e-05 7.75347e-07 0 2.08083e-07 0 4.1766e-06)
(1.39803e-05 7.88895e-07 0 2.16183e-07 0 4.22305e-06)
(1.40807e-05 8.01916e-07 0 2.24169e-07 0 4.26692e-06)
(1.41886e-05 8.14372e-07 0 2.32285e-07 0 4.30914e-06)
(1.43013e-05 8.25371e-07 0 2.40141e-07 0 4.3491e-06)
(1.44305e-05 8.37099e-07 0 2.48715e-07 0 4.38969e-06)
(1.45581e-05 8.47698e-07 0 2.56869e-07 0 4.42836e-06)
(1.46964e-05 8.58281e-07 0 2.65148e-07 0 4.46515e-06)
(1.48418e-05 8.68151e-07 0 2.72902e-07 0 4.49994e-06)
(1.50062e-05 8.77709e-07 0 2.80418e-07 0 4.53282e-06)
(1.51753e-05 8.87144e-07 0 2.87442e-07 0 4.56435e-06)
(1.53516e-05 8.9686e-07 0 2.94632e-07 0 4.59402e-06)
(1.55337e-05 9.06698e-07 0 3.0241e-07 0 4.62334e-06)
(1.57145e-05 9.16628e-07 0 3.09788e-07 0 4.6481e-06)
(1.58935e-05 9.25075e-07 0 3.16836e-07 0 4.66922e-06)
(1.60717e-05 9.32988e-07 0 3.23896e-07 0 4.69106e-06)
(1.62499e-05 9.41088e-07 0 3.30882e-07 0 4.70929e-06)
(1.64338e-05 9.48128e-07 0 3.36791e-07 0 4.72379e-06)
(1.66196e-05 9.55206e-07 0 3.42493e-07 0 4.73959e-06)
(1.68008e-05 9.61052e-07 0 3.47134e-07 0 4.75298e-06)
(1.69859e-05 9.66041e-07 0 3.51573e-07 0 4.76363e-06)
(1.71762e-05 9.70432e-07 0 3.55956e-07 0 4.77251e-06)
(1.73606e-05 9.7474e-07 0 3.59976e-07 0 4.77573e-06)
(1.75428e-05 9.77022e-07 0 3.62536e-07 0 4.77098e-06)
(1.77234e-05 9.7821e-07 0 3.63922e-07 0 4.76348e-06)
(1.78835e-05 9.76335e-07 0 3.64069e-07 0 4.75007e-06)
(1.80389e-05 9.7474e-07 0 3.64455e-07 0 4.72963e-06)
(1.81981e-05 9.72884e-07 0 3.64747e-07 0 4.70695e-06)
(1.83313e-05 9.68613e-07 0 3.6364e-07 0 4.68151e-06)
(1.84735e-05 9.67002e-07 0 3.62959e-07 0 4.65493e-06)
(1.86071e-05 9.64095e-07 0 3.61454e-07 0 4.62235e-06)
(1.87371e-05 9.57976e-07 0 3.58649e-07 0 4.58048e-06)
(1.88576e-05 9.50779e-07 0 3.54451e-07 0 4.53631e-06)
(1.8969e-05 9.44257e-07 0 3.49278e-07 0 4.49273e-06)
(1.90639e-05 9.35992e-07 0 3.43228e-07 0 4.44136e-06)
(1.91418e-05 9.26145e-07 0 3.36902e-07 0 4.38184e-06)
(1.91922e-05 9.15875e-07 0 3.30279e-07 0 4.31718e-06)
(1.92457e-05 9.05483e-07 0 3.23695e-07 0 4.25318e-06)
(1.92791e-05 8.95939e-07 0 3.17126e-07 0 4.18765e-06)
(1.92975e-05 8.85456e-07 0 3.10736e-07 0 4.12597e-06)
(1.92924e-05 8.72301e-07 0 3.0334e-07 0 4.0659e-06)
(1.9292e-05 8.60983e-07 0 2.95625e-07 0 4.00567e-06)
(1.92744e-05 8.48888e-07 0 2.86598e-07 0 3.94449e-06)
(1.92408e-05 8.37586e-07 0 2.77945e-07 0 3.88687e-06)
(1.91864e-05 8.24143e-07 0 2.69644e-07 0 3.82987e-06)
(1.91265e-05 8.09801e-07 0 2.61145e-07 0 3.77644e-06)
(1.90662e-05 7.97045e-07 0 2.52788e-07 0 3.72458e-06)
(1.9005e-05 7.85949e-07 0 2.44931e-07 0 3.67846e-06)
(1.89425e-05 7.77651e-07 0 2.37588e-07 0 3.63361e-06)
(1.88594e-05 7.69011e-07 0 2.29952e-07 0 3.58955e-06)
(1.87536e-05 7.58504e-07 0 2.22708e-07 0 3.54463e-06)
(1.86554e-05 7.47786e-07 0 2.16008e-07 0 3.50608e-06)
(1.85456e-05 7.37287e-07 0 2.09254e-07 0 3.47143e-06)
(1.84404e-05 7.28496e-07 0 2.02756e-07 0 3.44011e-06)
(1.83241e-05 7.20605e-07 0 1.96391e-07 0 3.40883e-06)
(1.82019e-05 7.14221e-07 0 1.90592e-07 0 3.38243e-06)
(1.80663e-05 7.0761e-07 0 1.85185e-07 0 3.36181e-06)
(1.79288e-05 7.02115e-07 0 1.80503e-07 0 3.3467e-06)
(1.77896e-05 6.97347e-07 0 1.75981e-07 0 3.33548e-06)
(1.7639e-05 6.90866e-07 0 1.71596e-07 0 3.32435e-06)
(1.74938e-05 6.84556e-07 0 1.67601e-07 0 3.31729e-06)
(1.73457e-05 6.79071e-07 0 1.64114e-07 0 3.31416e-06)
(1.72076e-05 6.74467e-07 0 1.61156e-07 0 3.31486e-06)
(1.70706e-05 6.70473e-07 0 1.58078e-07 0 3.31695e-06)
(1.69297e-05 6.67126e-07 0 1.5517e-07 0 3.3184e-06)
(1.67844e-05 6.6392e-07 0 1.52489e-07 0 3.32085e-06)
(1.66408e-05 6.61207e-07 0 1.50159e-07 0 3.32632e-06)
(1.64971e-05 6.59268e-07 0 1.48226e-07 0 3.33211e-06)
(1.63409e-05 6.56601e-07 0 1.46252e-07 0 3.3369e-06)
(1.61872e-05 6.53925e-07 0 1.44047e-07 0 3.34198e-06)
(1.6032e-05 6.50688e-07 0 1.41804e-07 0 3.34556e-06)
(1.58699e-05 6.4796e-07 0 1.39824e-07 0 3.35204e-06)
(1.57034e-05 6.44835e-07 0 1.3781e-07 0 3.35643e-06)
(1.55431e-05 6.42603e-07 0 1.36219e-07 0 3.3639e-06)
(1.53762e-05 6.39967e-07 0 1.3468e-07 0 3.3712e-06)
(1.52109e-05 6.37049e-07 0 1.3336e-07 0 3.37963e-06)
(1.50421e-05 6.33496e-07 0 1.32076e-07 0 3.38798e-06)
(1.4889e-05 6.31571e-07 0 1.3105e-07 0 3.39894e-06)
(1.47305e-05 6.29901e-07 0 1.30241e-07 0 3.40895e-06)
(1.45788e-05 6.28864e-07 0 1.29753e-07 0 3.4208e-06)
(1.4426e-05 6.27846e-07 0 1.29368e-07 0 3.43147e-06)
(1.42706e-05 6.26389e-07 0 1.29084e-07 0 3.44228e-06)
(1.41179e-05 6.25136e-07 0 1.28757e-07 0 3.45309e-06)
(1.39753e-05 6.25169e-07 0 1.28947e-07 0 3.46837e-06)
(1.38403e-05 6.25251e-07 0 1.29315e-07 0 3.48647e-06)
(1.37196e-05 6.26564e-07 0 1.30185e-07 0 3.50968e-06)
(1.36202e-05 6.29352e-07 0 1.3179e-07 0 3.53863e-06)
(1.35522e-05 6.34426e-07 0 1.34254e-07 0 3.57445e-06)
(1.62789e-05 9.43494e-07 0 2.40973e-07 0 4.55407e-06)
(1.62141e-05 9.53128e-07 0 2.47018e-07 0 4.59817e-06)
(1.61991e-05 9.67525e-07 0 2.54962e-07 0 4.65571e-06)
(1.61957e-05 9.81806e-07 0 2.63385e-07 0 4.71497e-06)
(1.62084e-05 9.96216e-07 0 2.72373e-07 0 4.77687e-06)
(1.62367e-05 1.01149e-06 0 2.82525e-07 0 4.84168e-06)
(1.62473e-05 1.02642e-06 0 2.94416e-07 0 4.90233e-06)
(1.62806e-05 1.04281e-06 0 3.07042e-07 0 4.96565e-06)
(1.63271e-05 1.05914e-06 0 3.19713e-07 0 5.0263e-06)
(1.63944e-05 1.07684e-06 0 3.33157e-07 0 5.08535e-06)
(1.64792e-05 1.09599e-06 0 3.46996e-07 0 5.14195e-06)
(1.65684e-05 1.1142e-06 0 3.6078e-07 0 5.19338e-06)
(1.66665e-05 1.13235e-06 0 3.7497e-07 0 5.24433e-06)
(1.67753e-05 1.15002e-06 0 3.89072e-07 0 5.29252e-06)
(1.68957e-05 1.16656e-06 0 4.03045e-07 0 5.33652e-06)
(1.7027e-05 1.18134e-06 0 4.16618e-07 0 5.3778e-06)
(1.71676e-05 1.1958e-06 0 4.30345e-07 0 5.41845e-06)
(1.73244e-05 1.21043e-06 0 4.44532e-07 0 5.45918e-06)
(1.74913e-05 1.22521e-06 0 4.58322e-07 0 5.49939e-06)
(1.76709e-05 1.239e-06 0 4.71435e-07 0 5.53517e-06)
(1.78657e-05 1.25225e-06 0 4.83887e-07 0 5.56866e-06)
(1.80715e-05 1.26566e-06 0 4.95698e-07 0 5.60083e-06)
(1.82869e-05 1.28003e-06 0 5.07804e-07 0 5.63015e-06)
(1.85044e-05 1.29396e-06 0 5.20208e-07 0 5.65603e-06)
(1.87314e-05 1.30885e-06 0 5.32985e-07 0 5.67886e-06)
(1.89547e-05 1.3219e-06 0 5.44823e-07 0 5.70136e-06)
(1.91818e-05 1.33413e-06 0 5.56259e-07 0 5.72218e-06)
(1.94136e-05 1.34637e-06 0 5.67297e-07 0 5.73729e-06)
(1.96481e-05 1.35751e-06 0 5.76681e-07 0 5.75166e-06)
(1.98911e-05 1.36858e-06 0 5.8545e-07 0 5.76412e-06)
(2.01317e-05 1.37837e-06 0 5.92973e-07 0 5.77688e-06)
(2.03782e-05 1.38687e-06 0 5.99842e-07 0 5.78785e-06)
(2.06275e-05 1.39423e-06 0 6.05985e-07 0 5.79499e-06)
(2.08858e-05 1.40183e-06 0 6.11957e-07 0 5.79563e-06)
(2.11399e-05 1.40799e-06 0 6.15892e-07 0 5.78755e-06)
(2.13872e-05 1.41243e-06 0 6.17241e-07 0 5.77231e-06)
(2.16277e-05 1.41417e-06 0 6.17377e-07 0 5.75266e-06)
(2.18626e-05 1.41543e-06 0 6.18347e-07 0 5.72857e-06)
(2.20868e-05 1.41505e-06 0 6.17951e-07 0 5.69794e-06)
(2.22943e-05 1.41232e-06 0 6.16122e-07 0 5.66675e-06)
(2.25016e-05 1.4105e-06 0 6.13834e-07 0 5.63193e-06)
(2.27066e-05 1.40803e-06 0 6.10464e-07 0 5.58978e-06)
(2.29038e-05 1.40255e-06 0 6.05315e-07 0 5.53887e-06)
(2.30938e-05 1.3951e-06 0 5.98143e-07 0 5.48716e-06)
(2.32692e-05 1.38784e-06 0 5.89046e-07 0 5.43567e-06)
(2.34358e-05 1.38013e-06 0 5.78902e-07 0 5.3793e-06)
(2.3572e-05 1.36936e-06 0 5.6812e-07 0 5.31213e-06)
(2.36873e-05 1.35679e-06 0 5.57128e-07 0 5.24018e-06)