/*--------------------------------*- C++ -*----------------------------------*\
| =========                 |                                                 |
| \\      /  F ield         | OpenFOAM: The Open Source CFD Toolbox           |
|  \\    /   O peration     | Version:  2306                                  |
|   \\  /    A nd           | Website:  www.openfoam.com                      |
|    \\/     M anipulation  |                                                 |
\*---------------------------------------------------------------------------*/
// * * * * * * * * * * * * * * * * * * * * * * * * * * * * * * * * * * * * * //
FoamFile
{
    version         2;
    format          ascii;
    class           volSymmTensorField;
    location        "6237.56999999385971";
    object          R;
}

dimensions      [ 0 2 -2 0 0 0 0 ];

internalField   nonuniform List<symmTensor> 
14751
(
(2.29868e-05 2.18155e-05 4.4082e-33 2.30013e-05 7.05482e-38 2.29934e-05)
(2.27515e-05 2.16131e-05 -1.70152e-30 2.27636e-05 -1.14803e-27 2.2758e-05)
(2.25787e-05 2.14727e-05 -3.44444e-29 2.25934e-05 -2.08332e-28 2.25857e-05)
(2.23631e-05 2.13244e-05 -8.48796e-27 2.23861e-05 -5.1213e-29 2.23737e-05)
(2.21201e-05 2.11542e-05 3.6062e-29 2.21447e-05 8.68626e-33 2.21317e-05)
(2.18825e-05 2.09966e-05 -3.78731e-29 2.19105e-05 1.41717e-26 2.18952e-05)
(2.16347e-05 2.08383e-05 -4.14688e-27 2.1665e-05 -1.45032e-27 2.16485e-05)
(2.13921e-05 2.06928e-05 7.02318e-29 2.14255e-05 3.9091e-27 2.1407e-05)
(2.11412e-05 2.05472e-05 -3.49673e-31 2.11767e-05 -2.73705e-27 2.11571e-05)
(2.08942e-05 2.04099e-05 -2.03512e-30 2.09314e-05 2.64415e-26 2.09107e-05)
(2.06477e-05 2.02787e-05 -1.44739e-28 2.06864e-05 7.69026e-27 2.06648e-05)
(2.0408e-05 2.01571e-05 -7.95661e-28 2.04475e-05 -4.04287e-26 2.04254e-05)
(2.01759e-05 2.00469e-05 7.97219e-28 2.02164e-05 4.08782e-28 2.01935e-05)
(1.99529e-05 1.99472e-05 -1.59383e-27 1.99935e-05 3.68441e-26 1.99706e-05)
(1.97411e-05 1.98609e-05 1.67533e-27 1.97823e-05 9.56407e-28 1.97589e-05)
(1.95375e-05 1.97822e-05 7.21037e-30 1.95779e-05 -1.09794e-26 1.95551e-05)
(1.93511e-05 1.97208e-05 1.54031e-27 1.93915e-05 1.21558e-26 1.93684e-05)
(1.91724e-05 1.9667e-05 -2.19044e-27 1.9212e-05 3.39933e-26 1.91894e-05)
(1.90096e-05 1.96277e-05 -7.06418e-28 1.90487e-05 1.14838e-26 1.90263e-05)
(1.88549e-05 1.95951e-05 8.37814e-28 1.8893e-05 -5.05787e-26 1.88712e-05)
(1.87155e-05 1.9574e-05 2.19565e-30 1.87523e-05 4.43812e-35 1.87312e-05)
(1.85886e-05 1.95636e-05 8.06305e-28 1.86242e-05 6.92556e-28 1.86037e-05)
(1.84741e-05 1.95626e-05 1.37703e-29 1.85083e-05 4.76817e-29 1.84886e-05)
(1.83721e-05 1.95706e-05 -1.74686e-27 1.84049e-05 -1.48216e-27 1.83859e-05)
(1.82819e-05 1.9587e-05 -1.55685e-29 1.83132e-05 -4.59781e-29 1.8295e-05)
(1.82034e-05 1.96113e-05 7.01815e-28 1.82331e-05 5.99171e-26 1.82158e-05)
(1.81357e-05 1.96425e-05 7.48767e-29 1.81639e-05 -2.99661e-26 1.81474e-05)
(1.80787e-05 1.96802e-05 -3.76104e-28 1.81051e-05 2.99409e-26 1.80896e-05)
(1.80319e-05 1.9724e-05 8.83955e-28 1.80567e-05 3.11386e-26 1.80421e-05)
(1.79948e-05 1.9773e-05 -9.37437e-28 1.80179e-05 -5.55667e-28 1.80043e-05)
(1.7967e-05 1.98269e-05 -6.13308e-29 1.79884e-05 2.34193e-26 1.79756e-05)
(1.79481e-05 1.98851e-05 -5.12578e-28 1.79678e-05 7.58344e-27 1.79561e-05)
(1.79378e-05 1.99471e-05 -4.86996e-28 1.79557e-05 -1.61642e-28 1.79449e-05)
(1.79356e-05 2.00127e-05 -2.12954e-28 1.79518e-05 3.76455e-27 1.7942e-05)
(1.7941e-05 2.00811e-05 3.38864e-28 1.79556e-05 -3.45519e-27 1.79467e-05)
(1.79541e-05 2.01521e-05 -2.45403e-27 1.79669e-05 -3.16e-26 1.7959e-05)
(1.79748e-05 2.02257e-05 -1.12178e-28 1.7986e-05 -1.15841e-26 1.7979e-05)
(1.80021e-05 2.03011e-05 2.21629e-28 1.80117e-05 7.70165e-27 1.80056e-05)
(1.80357e-05 2.03781e-05 -8.93898e-30 1.80437e-05 3.73221e-27 1.80386e-05)
(1.80754e-05 2.04565e-05 3.3788e-29 1.80817e-05 -1.81199e-27 1.80775e-05)
(1.81205e-05 2.05357e-05 1.05502e-27 1.81253e-05 -1.04851e-26 1.8122e-05)
(1.81714e-05 2.06158e-05 9.5895e-28 1.81746e-05 -1.47767e-27 1.81722e-05)
(1.82276e-05 2.06965e-05 -1.06332e-27 1.82293e-05 -7.2384e-27 1.82277e-05)
(1.82891e-05 2.07777e-05 3.29433e-29 1.82893e-05 -5.9505e-27 1.82886e-05)
(1.83553e-05 2.08591e-05 4.24035e-34 1.8354e-05 -8.39238e-28 1.83542e-05)
(1.84266e-05 2.09404e-05 -7.4278e-30 1.84238e-05 7.96336e-28 1.84248e-05)
(1.85024e-05 2.10217e-05 -2.54272e-28 1.84981e-05 -4.79339e-28 1.85e-05)
(1.85829e-05 2.11029e-05 2.63405e-28 1.85772e-05 -1.32603e-28 1.85799e-05)
(1.86676e-05 2.11834e-05 -2.50482e-28 1.86604e-05 -1.52279e-28 1.8664e-05)
(1.87567e-05 2.12635e-05 2.50709e-28 1.87481e-05 -3.75457e-29 1.87525e-05)
(1.885e-05 2.13428e-05 -2.62159e-28 1.884e-05 -7.43827e-28 1.88452e-05)
(1.89473e-05 2.14214e-05 2.74601e-28 1.89359e-05 3.77705e-28 1.89419e-05)
(1.90482e-05 2.14988e-05 2.33678e-28 1.90355e-05 -2.80185e-27 1.90423e-05)
(1.9153e-05 2.15752e-05 2.71675e-29 1.91389e-05 -5.69115e-28 1.91465e-05)
(1.92616e-05 2.16503e-05 2.11603e-28 1.92461e-05 6.06002e-28 1.92545e-05)
(1.93739e-05 2.17243e-05 -3.09712e-30 1.9357e-05 1.64622e-30 1.93662e-05)
(1.94895e-05 2.17967e-05 5.70872e-29 1.94712e-05 2.78522e-29 1.94813e-05)
(1.96089e-05 2.18679e-05 -5.45117e-30 1.95893e-05 -4.23498e-34 1.96001e-05)
(1.97315e-05 2.19374e-05 -2.72875e-28 1.97106e-05 8.15893e-28 1.97221e-05)
(1.98575e-05 2.20057e-05 1.13477e-29 1.98353e-05 -8.53875e-28 1.98476e-05)
(1.99865e-05 2.2072e-05 5.49094e-28 1.9963e-05 -5.971e-27 1.99761e-05)
(2.01187e-05 2.21369e-05 -7.10941e-30 2.0094e-05 1.30686e-27 2.01077e-05)
(2.02539e-05 2.22001e-05 1.04347e-29 2.02279e-05 -1.3052e-27 2.02424e-05)
(2.03919e-05 2.22616e-05 1.09638e-27 2.03648e-05 8.91311e-27 2.03799e-05)
(2.05324e-05 2.23212e-05 -1.3499e-27 2.05042e-05 7.59692e-27 2.052e-05)
(2.06757e-05 2.23792e-05 7.04888e-28 2.06463e-05 -6.35068e-28 2.06628e-05)
(2.08211e-05 2.24352e-05 -1.58976e-27 2.07907e-05 -4.2343e-30 2.08078e-05)
(2.0969e-05 2.24894e-05 1.17223e-29 2.09375e-05 6.25589e-28 2.09552e-05)
(2.11193e-05 2.25421e-05 4.71246e-28 2.10868e-05 -6.84108e-28 2.11051e-05)
(2.12713e-05 2.25929e-05 -4.72065e-28 2.1238e-05 6.827e-28 2.12567e-05)
(2.14246e-05 2.26416e-05 -4.72102e-28 2.13905e-05 1.9669e-28 2.14097e-05)
(2.15792e-05 2.26883e-05 7.5371e-28 2.15443e-05 -1.95535e-28 2.15639e-05)
(2.17346e-05 2.2733e-05 -9.74167e-32 2.16991e-05 6.461e-28 2.17191e-05)
(2.18903e-05 2.27753e-05 -2.83296e-28 2.18542e-05 3.187e-27 2.18745e-05)
(2.20455e-05 2.28151e-05 -4.89155e-30 2.2009e-05 -5.73222e-27 2.20296e-05)
(2.22003e-05 2.28521e-05 9.57799e-28 2.21634e-05 -6.09765e-27 2.21843e-05)
(2.23538e-05 2.28864e-05 -9.41178e-28 2.23166e-05 9.69715e-29 2.23376e-05)
(2.25049e-05 2.29173e-05 -1.29601e-29 2.24676e-05 -7.58348e-33 2.24887e-05)
(2.2653e-05 2.29443e-05 1.24668e-27 2.26157e-05 -1.15012e-26 2.26368e-05)
(2.27978e-05 2.29678e-05 -9.37457e-28 2.27606e-05 1.51811e-28 2.27817e-05)
(2.29377e-05 2.29869e-05 -6.82112e-30 2.2901e-05 -4.54196e-33 2.29218e-05)
(2.30712e-05 2.30003e-05 1.12304e-30 2.30348e-05 -1.86745e-26 2.30555e-05)
(2.31978e-05 2.30084e-05 -1.42802e-28 2.31621e-05 3.8237e-27 2.31823e-05)
(2.33172e-05 2.3011e-05 -3.68884e-29 2.32821e-05 -1.64303e-26 2.33021e-05)
(2.34282e-05 2.30088e-05 9.64949e-30 2.33945e-05 1.69342e-26 2.34137e-05)
(2.35289e-05 2.29997e-05 -9.69853e-28 2.34961e-05 1.31699e-26 2.3515e-05)
(2.36183e-05 2.29852e-05 2.03019e-27 2.35876e-05 8.25666e-27 2.36052e-05)
(2.36908e-05 2.29588e-05 -9.17674e-28 2.36614e-05 -4.13122e-27 2.36784e-05)
(2.37528e-05 2.29285e-05 -7.39592e-30 2.37258e-05 -2.11138e-27 2.37414e-05)
(2.37949e-05 2.28865e-05 -2.37106e-28 2.37702e-05 -1.44653e-26 2.37847e-05)
(2.38215e-05 2.28378e-05 2.26363e-28 2.37998e-05 1.88351e-27 2.38126e-05)
(2.38234e-05 2.27748e-05 5.68903e-28 2.38047e-05 -1.69174e-26 2.38159e-05)
(2.38068e-05 2.27032e-05 3.27222e-31 2.37916e-05 -1.38264e-26 2.3801e-05)
(2.37578e-05 2.26121e-05 -5.56092e-28 2.37466e-05 2.41368e-29 2.37536e-05)
(2.36894e-05 2.25106e-05 1.12038e-28 2.3681e-05 -1.48258e-29 2.36868e-05)
(2.35875e-05 2.23923e-05 -1.11228e-28 2.35852e-05 1.42285e-28 2.35871e-05)
(2.34495e-05 2.22449e-05 -5.54073e-28 2.34489e-05 -3.74603e-27 2.34506e-05)
(2.32951e-05 2.20889e-05 -5.51311e-30 2.32977e-05 2.41012e-31 2.32968e-05)
(2.31469e-05 2.19449e-05 3.47705e-30 2.31498e-05 5.42604e-30 2.31496e-05)
(2.17015e-05 8.90618e-06 -6.86487e-29 2.17215e-05 4.74176e-34 2.17108e-05)
(2.15055e-05 8.84771e-06 -1.07542e-25 2.15254e-05 1.10844e-27 2.15155e-05)
(2.13426e-05 8.79542e-06 -5.73979e-27 2.13661e-05 -2.29567e-28 2.13545e-05)
(2.11577e-05 8.74188e-06 1.55877e-26 2.11925e-05 1.81302e-26 2.11756e-05)
(2.09542e-05 8.6794e-06 8.08081e-28 2.0993e-05 -6.43358e-30 2.09746e-05)
(2.07528e-05 8.61513e-06 2.07628e-25 2.07965e-05 -1.36464e-26 2.07757e-05)
(2.05456e-05 8.54724e-06 -7.14099e-27 2.05938e-05 8.80021e-28 2.05712e-05)
(2.03419e-05 8.47875e-06 3.33394e-26 2.03949e-05 2.9934e-28 2.037e-05)
(2.01343e-05 8.40763e-06 -2.08761e-26 2.01913e-05 -9.70477e-26 2.01648e-05)
(1.99298e-05 8.33561e-06 2.00383e-25 1.99896e-05 -2.49853e-26 1.99619e-05)
(1.97272e-05 8.26325e-06 3.93363e-26 1.97896e-05 -1.20651e-25 1.97608e-05)
(1.95302e-05 8.19105e-06 -2.39758e-25 1.95943e-05 -1.20625e-25 1.95649e-05)
(1.93404e-05 8.12033e-06 4.80857e-27 1.9406e-05 -1.0909e-25 1.93759e-05)
(1.91581e-05 8.05061e-06 1.92554e-25 1.92244e-05 1.22913e-25 1.91942e-05)
(1.89855e-05 7.98337e-06 -3.02411e-27 1.90525e-05 2.13984e-28 1.90219e-05)
(1.88203e-05 7.91725e-06 -4.07207e-26 1.88867e-05 -8.09897e-29 1.88566e-05)
(1.86683e-05 7.85482e-06 4.45463e-26 1.87346e-05 -2.07815e-25 1.87045e-05)
(1.85239e-05 7.79414e-06 1.4674e-25 1.85892e-05 -6.73362e-26 1.85597e-05)
(1.83918e-05 7.73695e-06 3.57097e-26 1.84562e-05 1.32547e-27 1.84272e-05)
(1.82674e-05 7.68188e-06 -1.8559e-25 1.83303e-05 7.09639e-26 1.83021e-05)
(1.8155e-05 7.62998e-06 3.23899e-27 1.82158e-05 -2.73856e-26 1.81886e-05)
(1.8053e-05 7.58146e-06 -8.19918e-30 1.81119e-05 2.66674e-26 1.80856e-05)
(1.79616e-05 7.53605e-06 -1.27652e-28 1.80182e-05 -1.17365e-28 1.7993e-05)
(1.78804e-05 7.49393e-06 1.35452e-28 1.79347e-05 1.62955e-26 1.79106e-05)
(1.78091e-05 7.45503e-06 3.83392e-27 1.78609e-05 -1.45936e-26 1.7838e-05)
(1.77475e-05 7.41927e-06 1.78839e-25 1.77967e-05 -5.24249e-26 1.7775e-05)
(1.76951e-05 7.38666e-06 -9.21042e-26 1.77417e-05 2.60398e-26 1.77212e-05)
(1.76517e-05 7.35715e-06 9.37455e-26 1.76954e-05 9.6859e-26 1.76763e-05)
(1.7617e-05 7.33071e-06 8.73863e-26 1.7658e-05 -4.28128e-26 1.76401e-05)
(1.75903e-05 7.30723e-06 5.21478e-29 1.76285e-05 1.64062e-26 1.76119e-05)
(1.75717e-05 7.28664e-06 7.09876e-26 1.76071e-05 -2.76964e-26 1.75918e-05)
(1.75606e-05 7.26883e-06 1.88818e-26 1.75932e-05 -6.07996e-26 1.75792e-05)
(1.75568e-05 7.2538e-06 2.60665e-28 1.75866e-05 -7.31476e-27 1.75738e-05)
(1.75599e-05 7.2414e-06 9.86901e-27 1.75869e-05 1.63524e-26 1.75754e-05)
(1.75696e-05 7.2316e-06 -1.20425e-26 1.75938e-05 -8.76163e-27 1.75836e-05)
(1.75857e-05 7.22422e-06 -8.82344e-26 1.76072e-05 2.82287e-26 1.75983e-05)
(1.76083e-05 7.21927e-06 -3.27079e-26 1.76271e-05 -4.72462e-26 1.76194e-05)
(1.76366e-05 7.2167e-06 2.61212e-26 1.76528e-05 -7.43562e-26 1.76462e-05)
(1.76704e-05 7.21641e-06 9.38472e-27 1.76839e-05 5.86444e-28 1.76785e-05)
(1.77093e-05 7.21846e-06 -5.93262e-27 1.77203e-05 -2.82668e-28 1.7716e-05)
(1.77531e-05 7.2227e-06 -3.63754e-26 1.77616e-05 8.29581e-27 1.77585e-05)
(1.78019e-05 7.22909e-06 -5.77036e-27 1.78079e-05 -2.59016e-26 1.78059e-05)
(1.78552e-05 7.23755e-06 -2.19265e-26 1.78588e-05 1.0112e-26 1.78578e-05)
(1.7913e-05 7.24813e-06 -1.99337e-26 1.79141e-05 2.79295e-26 1.79143e-05)
(1.7975e-05 7.26057e-06 -2.09886e-27 1.79738e-05 -9.12806e-29 1.7975e-05)
(1.80413e-05 7.27507e-06 2.56886e-27 1.80377e-05 -1.11701e-26 1.804e-05)
(1.81115e-05 7.29145e-06 -1.06953e-27 1.81056e-05 1.22248e-28 1.81089e-05)
(1.81858e-05 7.30975e-06 -8.86362e-28 1.81776e-05 -2.13841e-28 1.81818e-05)
(1.82637e-05 7.32989e-06 -4.09783e-29 1.82531e-05 -3.04456e-29 1.82584e-05)
(1.83453e-05 7.35184e-06 -6.29539e-28 1.83325e-05 6.74546e-30 1.83388e-05)
(1.84304e-05 7.37562e-06 -2.61455e-27 1.84154e-05 1.40971e-27 1.84226e-05)
(1.85189e-05 7.40117e-06 8.74297e-28 1.85016e-05 -7.75505e-28 1.85099e-05)
(1.86106e-05 7.42849e-06 -1.33577e-26 1.85911e-05 7.05822e-28 1.86003e-05)
(1.87054e-05 7.45754e-06 -2.39116e-27 1.86837e-05 -8.48451e-27 1.86939e-05)
(1.88034e-05 7.48829e-06 2.36736e-27 1.87794e-05 -1.33173e-29 1.87906e-05)
(1.89043e-05 7.52074e-06 -3.2347e-29 1.88782e-05 2.09404e-27 1.88903e-05)
(1.9008e-05 7.55479e-06 -6.54118e-32 1.89797e-05 -2.12358e-27 1.89928e-05)
(1.91147e-05 7.59051e-06 5.74383e-29 1.90842e-05 1.1214e-31 1.90983e-05)
(1.92239e-05 7.62781e-06 5.54629e-27 1.91914e-05 -1.3964e-26 1.92063e-05)
(1.93357e-05 7.66673e-06 -5.75321e-27 1.93011e-05 1.30162e-26 1.9317e-05)
(1.94499e-05 7.70713e-06 -4.88751e-26 1.94131e-05 4.94653e-27 1.943e-05)
(1.95664e-05 7.74905e-06 1.10776e-26 1.95276e-05 2.81529e-27 1.95453e-05)
(1.96851e-05 7.79239e-06 -1.02793e-26 1.96442e-05 -2.80881e-27 1.96629e-05)
(1.98058e-05 7.8372e-06 9.75843e-26 1.9763e-05 -7.79895e-27 1.97825e-05)
(1.99282e-05 7.88329e-06 9.91442e-26 1.98835e-05 -6.35282e-27 1.99038e-05)
(2.00524e-05 7.9307e-06 -1.14401e-26 2.00058e-05 1.15437e-26 2.0027e-05)
(2.0178e-05 7.9793e-06 1.15347e-27 2.01296e-05 1.04246e-26 2.01516e-05)
(2.03051e-05 8.02896e-06 1.09097e-26 2.02549e-05 2.60081e-27 2.02776e-05)
(2.04333e-05 8.07961e-06 -2.22228e-26 2.03815e-05 -1.34068e-28 2.0405e-05)
(2.05624e-05 8.13123e-06 2.21857e-26 2.0509e-05 -9.39639e-27 2.05332e-05)
(2.06919e-05 8.18364e-06 2.23786e-26 2.06371e-05 4.50162e-28 2.06619e-05)
(2.08217e-05 8.23667e-06 -2.25955e-26 2.07656e-05 -4.5138e-28 2.07909e-05)
(2.09513e-05 8.29027e-06 -1.02141e-25 2.08939e-05 -4.84204e-28 2.09198e-05)
(2.10803e-05 8.34419e-06 -2.05808e-25 2.10219e-05 -1.60595e-27 2.10483e-05)
(2.12081e-05 8.39836e-06 2.29014e-25 2.11488e-05 4.54812e-27 2.11756e-05)
(2.13344e-05 8.45246e-06 1.85346e-25 2.12743e-05 4.49107e-27 2.13015e-05)
(2.14587e-05 8.50649e-06 3.6997e-28 2.13981e-05 4.52079e-27 2.14254e-05)
(2.158e-05 8.56e-06 -7.03698e-28 2.1519e-05 -4.61858e-27 2.15466e-05)
(2.16978e-05 8.61276e-06 2.10496e-25 2.16366e-05 3.30215e-26 2.16642e-05)
(2.18115e-05 8.66451e-06 6.9205e-28 2.17505e-05 -1.52673e-28 2.1778e-05)
(2.19202e-05 8.71512e-06 -1.14229e-27 2.18597e-05 5.59165e-26 2.18869e-05)
(2.20224e-05 8.7638e-06 2.61225e-25 2.19625e-05 -4.74458e-26 2.19895e-05)
(2.21179e-05 8.81068e-06 -4.66927e-26 2.20589e-05 4.14647e-28 2.20854e-05)
(2.22058e-05 8.85488e-06 2.16472e-25 2.2148e-05 1.48452e-26 2.2174e-05)
(2.22862e-05 8.89709e-06 -2.14717e-25 2.22302e-05 -1.53569e-26 2.22552e-05)
(2.23564e-05 8.93561e-06 -1.69867e-25 2.23025e-05 -8.71166e-26 2.23267e-05)
(2.24168e-05 8.97138e-06 -9.70577e-26 2.23659e-05 7.24785e-26 2.23885e-05)
(2.24626e-05 9.00173e-06 4.72535e-26 2.24143e-05 -6.53868e-28 2.24358e-05)
(2.24983e-05 9.0287e-06 2.35878e-26 2.24536e-05 -1.95823e-28 2.24733e-05)
(2.25178e-05 9.05006e-06 1.96196e-25 2.24771e-05 1.15546e-26 2.2495e-05)
(2.25233e-05 9.06647e-06 -2.44509e-26 2.24873e-05 4.38101e-27 2.2503e-05)
(2.25093e-05 9.07636e-06 2.43525e-25 2.24784e-05 1.60534e-26 2.24917e-05)
(2.24786e-05 9.07998e-06 2.22123e-25 2.24534e-05 1.22532e-26 2.24642e-05)
(2.24243e-05 9.07656e-06 1.44595e-27 2.2405e-05 -5.22174e-26 2.24128e-05)
(2.2351e-05 9.06457e-06 1.04673e-29 2.23373e-05 1.68652e-29 2.23428e-05)
(2.22538e-05 9.04727e-06 -3.25706e-27 2.22479e-05 1.89675e-26 2.22493e-05)
(2.2127e-05 9.01704e-06 1.13643e-25 2.21257e-05 3.15108e-27 2.21255e-05)
(2.19887e-05 8.98267e-06 2.20403e-28 2.19911e-05 9.8672e-29 2.19885e-05)
(2.1849e-05 8.94317e-06 -4.22658e-28 2.1855e-05 -5.41254e-30 2.18518e-05)
(2.0963e-05 9.04163e-06 7.39226e-29 2.09899e-05 -1.61474e-30 2.09758e-05)
(2.07848e-05 8.9797e-06 1.23028e-25 2.08159e-05 1.67355e-27 2.08009e-05)
(2.06216e-05 8.91505e-06 -7.5679e-27 2.06604e-05 2.748e-28 2.06412e-05)
(2.04503e-05 8.8592e-06 6.04872e-25 2.05058e-05 -1.66345e-26 2.04779e-05)
(2.02655e-05 8.79391e-06 -2.12459e-27 2.03295e-05 -6.23979e-28 2.02978e-05)
(2.00813e-05 8.72615e-06 -2.36488e-25 2.01546e-05 -2.05653e-26 2.01179e-05)
(1.98946e-05 8.65686e-06 8.31891e-28 1.99768e-05 1.48644e-25 1.9936e-05)
(1.97114e-05 8.58699e-06 -6.21124e-27 1.98023e-05 -5.28752e-27 1.97569e-05)
(1.95278e-05 8.51684e-06 -1.13376e-24 1.96262e-05 3.03218e-25 1.95772e-05)
(1.93475e-05 8.44574e-06 -2.27795e-25 1.94518e-05 -4.50415e-26 1.93998e-05)
(1.91708e-05 8.37548e-06 -1.11381e-24 1.92802e-05 1.04587e-25 1.92256e-05)
(1.89996e-05 8.30545e-06 -9.98527e-25 1.9113e-05 1.818e-25 1.90564e-05)
(1.88359e-05 8.23798e-06 -8.22082e-25 1.89526e-05 1.1961e-25 1.88943e-05)
(1.86795e-05 8.1716e-06 8.63386e-25 1.87984e-05 1.39383e-25 1.87391e-05)
(1.85325e-05 8.10864e-06 -9.52997e-27 1.86531e-05 2.98853e-25 1.85928e-05)
(1.83928e-05 8.04672e-06 -1.54162e-26 1.85133e-05 -3.02693e-25 1.84532e-05)
(1.82646e-05 7.98873e-06 -1.17024e-24 1.83852e-05 1.5502e-25 1.83248e-05)
(1.8144e-05 7.93305e-06 -3.1179e-25 1.82638e-05 -5.56071e-26 1.8204e-05)
(1.80341e-05 7.88071e-06 1.18527e-26 1.81525e-05 9.69023e-27 1.80932e-05)
(1.79319e-05 7.83096e-06 3.20793e-25 1.8048e-05 -1.91523e-25 1.79899e-05)
(1.78397e-05 7.78391e-06 -1.18514e-25 1.79527e-05 2.18087e-25 1.78962e-05)
(1.77571e-05 7.74049e-06 1.17243e-25 1.7867e-05 2.5882e-25 1.7812e-05)
(1.76836e-05 7.70015e-06 -9.26118e-28 1.77899e-05 2.95158e-26 1.77367e-05)
(1.76192e-05 7.66307e-06 5.54118e-26 1.77216e-05 2.08058e-27 1.76703e-05)
(1.75637e-05 7.62912e-06 -6.21481e-26 1.76619e-05 2.40875e-25 1.76127e-05)
(1.75166e-05 7.59829e-06 -1.95294e-25 1.76103e-05 -1.15961e-25 1.75633e-05)
(1.74776e-05 7.57057e-06 1.09814e-25 1.75667e-05 -2.05428e-25 1.75221e-05)
(1.74465e-05 7.54577e-06 3.86282e-25 1.75307e-05 -1.85795e-25 1.74885e-05)
(1.74231e-05 7.52398e-06 -1.59199e-25 1.75024e-05 -1.38459e-26 1.74626e-05)
(1.74069e-05 7.50511e-06 5.68457e-26 1.74812e-05 1.53145e-27 1.74439e-05)
(1.73976e-05 7.48897e-06 -1.03396e-25 1.74669e-05 -3.43484e-26 1.74321e-05)
(1.73949e-05 7.47559e-06 -2.41135e-25 1.74592e-05 -8.16931e-26 1.74269e-05)
(1.73987e-05 7.46484e-06 -2.18479e-26 1.74579e-05 -1.71518e-26 1.74282e-05)
(1.74086e-05 7.45672e-06 5.51614e-26 1.74627e-05 1.26164e-26 1.74355e-05)
(1.74242e-05 7.4511e-06 -2.65439e-26 1.74733e-05 4.03538e-27 1.74487e-05)
(1.74456e-05 7.44779e-06 9.45843e-26 1.74897e-05 5.76898e-26 1.74675e-05)
(1.74724e-05 7.44689e-06 -2.01179e-25 1.75116e-05 5.53598e-26 1.74919e-05)
(1.75044e-05 7.44829e-06 -2.87568e-25 1.75387e-05 4.20564e-26 1.75214e-05)
(1.75412e-05 7.45198e-06 5.52698e-27 1.75706e-05 -4.83518e-27 1.75558e-05)
(1.75826e-05 7.45797e-06 7.91498e-28 1.76073e-05 2.32752e-27 1.75949e-05)
(1.76285e-05 7.46602e-06 3.32144e-26 1.76484e-05 7.44226e-26 1.76383e-05)
(1.76786e-05 7.47628e-06 -1.07818e-25 1.76939e-05 3.5607e-26 1.76861e-05)
(1.77328e-05 7.48853e-06 4.22827e-26 1.77434e-05 2.50818e-27 1.7738e-05)
(1.7791e-05 7.50282e-06 1.25018e-25 1.77971e-05 -7.14723e-26 1.7794e-05)
(1.78529e-05 7.51894e-06 -2.95087e-27 1.78545e-05 2.46889e-26 1.78536e-05)
(1.79185e-05 7.53704e-06 -5.43367e-26 1.79156e-05 1.39904e-26 1.7917e-05)
(1.79877e-05 7.55702e-06 8.31426e-28 1.79804e-05 -2.66718e-26 1.7984e-05)
(1.80605e-05 7.57886e-06 -1.33167e-29 1.80488e-05 1.94602e-27 1.80546e-05)
(1.81364e-05 7.60257e-06 -8.66447e-28 1.81204e-05 3.50495e-28 1.81284e-05)
(1.82157e-05 7.62803e-06 9.93365e-28 1.81953e-05 -1.15822e-28 1.82055e-05)
(1.8298e-05 7.65531e-06 6.60638e-27 1.82733e-05 7.17351e-27 1.82857e-05)
(1.83833e-05 7.68433e-06 -3.54957e-27 1.83544e-05 -1.0701e-27 1.83689e-05)
(1.84714e-05 7.71509e-06 4.88965e-27 1.84382e-05 3.87439e-27 1.84548e-05)
(1.85623e-05 7.74754e-06 -5.58439e-26 1.85248e-05 7.0703e-27 1.85435e-05)
(1.86557e-05 7.78155e-06 7.66558e-28 1.8614e-05 3.97107e-27 1.86349e-05)
(1.87517e-05 7.81727e-06 1.42998e-26 1.87058e-05 3.30222e-26 1.87288e-05)
(1.885e-05 7.8545e-06 -1.45887e-26 1.87999e-05 3.27251e-26 1.8825e-05)
(1.89508e-05 7.89327e-06 -8.84938e-28 1.88965e-05 -3.08817e-30 1.89237e-05)
(1.90536e-05 7.93355e-06 -1.27494e-25 1.89953e-05 4.0375e-26 1.90245e-05)
(1.91585e-05 7.97534e-06 1.3053e-25 1.90961e-05 -1.39023e-26 1.91274e-05)
(1.92652e-05 8.01847e-06 5.13081e-26 1.91988e-05 1.1726e-26 1.92321e-05)
(1.93737e-05 8.06294e-06 2.90981e-26 1.93033e-05 -1.36497e-27 1.93386e-05)
(1.94838e-05 8.10867e-06 -3.04901e-26 1.94095e-05 1.35789e-27 1.94467e-05)
(1.95953e-05 8.15566e-06 -1.06059e-25 1.95172e-05 -7.88497e-27 1.95563e-05)
(1.97079e-05 8.20373e-06 -1.04745e-25 1.96261e-05 -1.87596e-26 1.96672e-05)
(1.98215e-05 8.25286e-06 2.37084e-25 1.97362e-05 1.93884e-26 1.9779e-05)
(1.9936e-05 8.30293e-06 2.36166e-25 1.98472e-05 -1.06565e-26 1.98918e-05)
(2.00511e-05 8.35368e-06 6.01551e-26 1.9959e-05 -5.6019e-28 2.00052e-05)
(2.01666e-05 8.40526e-06 -8.63998e-28 2.00714e-05 -5.65772e-28 2.01192e-05)
(2.02821e-05 8.45734e-06 -5.44586e-25 2.0184e-05 7.85673e-27 2.02333e-05)
(2.03974e-05 8.50986e-06 6.31857e-26 2.02966e-05 1.18684e-26 2.03472e-05)
(2.05121e-05 8.56262e-06 -6.23849e-26 2.04088e-05 1.14205e-27 2.04607e-05)
(2.06259e-05 8.61552e-06 1.111e-25 2.05203e-05 4.13906e-27 2.05733e-05)
(2.07382e-05 8.66833e-06 1.60556e-25 2.06306e-05 -1.94382e-26 2.06846e-05)
(2.08486e-05 8.72086e-06 -2.25398e-25 2.07394e-05 -1.31075e-26 2.07942e-05)
(2.09568e-05 8.77282e-06 -1.62889e-25 2.08461e-05 3.90449e-26 2.09017e-05)
(2.10621e-05 8.82421e-06 -1.30585e-25 2.09505e-05 5.97531e-28 2.10065e-05)
(2.11638e-05 8.87446e-06 1.31473e-25 2.10516e-05 4.93225e-27 2.11079e-05)
(2.12614e-05 8.92353e-06 -8.06976e-25 2.11489e-05 3.07889e-26 2.12053e-05)
(2.13542e-05 8.97078e-06 1.491e-27 2.12418e-05 -6.21318e-28 2.12982e-05)
(2.14415e-05 9.01655e-06 -1.16993e-24 2.133e-05 -1.01041e-25 2.13859e-05)
(2.15219e-05 9.05958e-06 9.34519e-25 2.14116e-05 2.04213e-25 2.14669e-05)
(2.15955e-05 9.10037e-06 4.16271e-27 2.14868e-05 -4.88376e-27 2.15413e-05)
(2.16609e-05 9.13742e-06 -2.3994e-25 2.15545e-05 4.07902e-26 2.16079e-05)
(2.17187e-05 9.17224e-06 2.33177e-25 2.16155e-05 -1.83475e-25 2.16672e-05)
(2.17664e-05 9.20245e-06 1.44881e-24 2.16672e-05 4.68572e-26 2.1717e-05)
(2.18048e-05 9.22995e-06 -1.20187e-24 2.17106e-05 -7.77971e-26 2.17577e-05)
(2.18297e-05 9.25138e-06 -4.62972e-27 2.17405e-05 5.67823e-27 2.17853e-05)
(2.18442e-05 9.26851e-06 8.3432e-28 2.17613e-05 2.84198e-27 2.18028e-05)
(2.18445e-05 9.28031e-06 -1.76922e-25 2.17688e-05 -1.20326e-25 2.18067e-05)
(2.18315e-05 9.2866e-06 -6.95254e-26 2.17642e-05 -2.27399e-27 2.17979e-05)
(2.18023e-05 9.28671e-06 -2.83774e-25 2.17437e-05 2.39623e-26 2.1773e-05)
(2.17571e-05 9.27969e-06 -2.36868e-25 2.17084e-05 1.78423e-26 2.17329e-05)
(2.16935e-05 9.26693e-06 1.25558e-24 2.16548e-05 5.11786e-26 2.1674e-05)
(2.16112e-05 9.24401e-06 4.39192e-27 2.15827e-05 -4.63837e-26 2.15972e-05)
(2.15109e-05 9.21844e-06 -6.28615e-25 2.14944e-05 -1.82724e-26 2.15023e-05)
(2.1385e-05 9.17866e-06 -1.13387e-25 2.13771e-05 4.82772e-27 2.13815e-05)
(2.12499e-05 9.13529e-06 -4.60844e-27 2.12488e-05 4.98915e-30 2.12489e-05)
(2.11085e-05 9.08379e-06 4.80398e-28 2.11161e-05 -3.22405e-29 2.1113e-05)
(2.04531e-05 9.08971e-06 2.01117e-25 2.04891e-05 9.06867e-29 2.04703e-05)
(2.02807e-05 9.0231e-06 1.69109e-29 2.03295e-05 8.59005e-27 2.03056e-05)
(2.01154e-05 8.94875e-06 -1.09245e-27 2.01756e-05 2.87877e-28 2.01456e-05)
(1.99515e-05 8.8914e-06 -6.49064e-25 2.00319e-05 -9.80494e-26 1.99915e-05)
(1.97764e-05 8.82387e-06 -2.08498e-26 1.98711e-05 -9.76341e-26 1.98241e-05)
(1.96025e-05 8.75369e-06 9.1886e-27 1.97106e-05 -1.08243e-25 1.96564e-05)
(1.94287e-05 8.6833e-06 3.04553e-24 1.95503e-05 -1.37748e-25 1.94896e-05)
(1.92593e-05 8.61306e-06 1.08348e-26 1.93932e-05 -2.1678e-28 1.93261e-05)
(1.90922e-05 8.54427e-06 4.34081e-24 1.92372e-05 -5.01594e-26 1.91647e-05)
(1.89292e-05 8.47511e-06 -9.8924e-26 1.90831e-05 2.69912e-25 1.90061e-05)
(1.87714e-05 8.40766e-06 1.25448e-24 1.89329e-05 4.33338e-25 1.88521e-05)
(1.86196e-05 8.3411e-06 1.23136e-24 1.87873e-05 1.70047e-25 1.87034e-05)
(1.8476e-05 8.27778e-06 1.05545e-24 1.86485e-05 -1.50113e-25 1.85621e-05)
(1.834e-05 8.2159e-06 1.80193e-24 1.85162e-05 -8.04042e-25 1.8428e-05)
(1.82137e-05 8.15825e-06 2.44132e-24 1.8392e-05 -3.25368e-25 1.83025e-05)
(1.80947e-05 8.10193e-06 -2.45763e-24 1.82738e-05 3.89744e-25 1.81842e-05)
(1.79865e-05 8.04991e-06 1.1935e-24 1.81654e-05 -1.42699e-25 1.80757e-05)
(1.78861e-05 8.00053e-06 -1.20837e-26 1.80642e-05 4.72727e-26 1.7975e-05)
(1.77956e-05 7.95453e-06 1.36623e-25 1.79715e-05 5.66325e-26 1.78833e-05)
(1.77127e-05 7.91134e-06 -1.64006e-24 1.78856e-05 1.45066e-25 1.7799e-05)
(1.76389e-05 7.87087e-06 1.37385e-24 1.78074e-05 -6.24016e-25 1.77229e-05)
(1.75739e-05 7.83396e-06 1.46309e-24 1.77379e-05 1.05295e-25 1.76557e-05)
(1.75173e-05 7.80021e-06 1.33021e-25 1.7676e-05 -4.15877e-25 1.75965e-05)
(1.74691e-05 7.76961e-06 1.50816e-26 1.7622e-05 -4.77315e-25 1.75453e-05)
(1.74288e-05 7.74216e-06 1.29582e-24 1.75756e-05 -2.03703e-25 1.7502e-05)
(1.73962e-05 7.71768e-06 -1.89237e-25 1.75363e-05 7.88413e-26 1.74661e-05)
(1.7371e-05 7.69624e-06 -1.29762e-24 1.75042e-05 6.98028e-25 1.74374e-05)
(1.73528e-05 7.67759e-06 -6.69447e-25 1.74789e-05 -4.60316e-25 1.74156e-05)
(1.73414e-05 7.66183e-06 1.61503e-25 1.74602e-05 6.5023e-26 1.74006e-05)
(1.73365e-05 7.64881e-06 -2.64507e-27 1.74479e-05 2.38734e-25 1.7392e-05)
(1.73377e-05 7.63846e-06 -5.19669e-27 1.74416e-05 3.34298e-25 1.73895e-05)
(1.7345e-05 7.63075e-06 -3.66853e-25 1.74413e-05 4.66719e-25 1.73929e-05)
(1.73578e-05 7.62548e-06 -6.69155e-26 1.74466e-05 8.67016e-27 1.7402e-05)
(1.73761e-05 7.6227e-06 7.49514e-26 1.74573e-05 -2.61515e-25 1.74166e-05)
(1.73996e-05 7.62234e-06 -1.36376e-28 1.74733e-05 2.51275e-25 1.74363e-05)
(1.74281e-05 7.6242e-06 7.66688e-26 1.74943e-05 2.00054e-25 1.7461e-05)
(1.74614e-05 7.62826e-06 1.96679e-25 1.75202e-05 8.11706e-26 1.74906e-05)
(1.74993e-05 7.63457e-06 2.62506e-25 1.75507e-05 1.06114e-25 1.75248e-05)
(1.75415e-05 7.64301e-06 -4.96233e-27 1.75856e-05 3.22294e-29 1.75634e-05)
(1.75878e-05 7.65369e-06 4.70234e-27 1.76247e-05 1.06479e-25 1.76061e-05)
(1.7638e-05 7.66636e-06 3.18303e-25 1.76678e-05 -5.29917e-26 1.76528e-05)
(1.76921e-05 7.68108e-06 1.64694e-25 1.77148e-05 3.64216e-26 1.77033e-05)
(1.77497e-05 7.69777e-06 -4.63649e-26 1.77654e-05 1.00644e-25 1.77575e-05)
(1.78109e-05 7.71619e-06 -4.47964e-25 1.78197e-05 9.67418e-27 1.78152e-05)
(1.78753e-05 7.7364e-06 1.48302e-25 1.78774e-05 -2.17207e-26 1.78763e-05)
(1.79431e-05 7.7585e-06 8.14618e-26 1.79384e-05 -4.0322e-26 1.79407e-05)
(1.8014e-05 7.78234e-06 -1.69814e-25 1.80026e-05 4.76372e-26 1.80083e-05)
(1.80881e-05 7.80804e-06 1.14981e-26 1.80701e-05 3.30849e-27 1.80791e-05)
(1.8165e-05 7.83537e-06 2.1684e-27 1.81404e-05 -1.34746e-26 1.81527e-05)
(1.82449e-05 7.86451e-06 -1.85034e-27 1.82137e-05 -2.75089e-28 1.82293e-05)
(1.83274e-05 7.89527e-06 4.49581e-26 1.82897e-05 4.50864e-27 1.83085e-05)
(1.84125e-05 7.92777e-06 -5.19001e-27 1.83683e-05 2.52332e-26 1.83904e-05)
(1.84999e-05 7.9618e-06 6.53152e-28 1.84494e-05 -4.34966e-27 1.84747e-05)
(1.85898e-05 7.99738e-06 5.01832e-26 1.85327e-05 1.17198e-26 1.85613e-05)
(1.86818e-05 8.03441e-06 4.00125e-26 1.86183e-05 -4.13392e-27 1.86501e-05)
(1.87759e-05 8.07303e-06 3.11883e-25 1.87061e-05 -3.07587e-26 1.87411e-05)
(1.8872e-05 8.11294e-06 3.27368e-25 1.87958e-05 -3.18992e-26 1.8834e-05)
(1.89699e-05 8.15423e-06 8.31819e-28 1.88875e-05 4.07862e-27 1.89288e-05)
(1.90694e-05 8.19686e-06 4.72184e-25 1.89809e-05 5.19765e-26 1.90253e-05)
(1.91706e-05 8.24074e-06 -1.8326e-25 1.90759e-05 -1.87834e-26 1.91234e-05)
(1.9273e-05 8.28579e-06 4.01939e-26 1.91723e-05 -7.62332e-27 1.92228e-05)
(1.93766e-05 8.33194e-06 -2.73258e-28 1.92699e-05 -5.45253e-26 1.93234e-05)
(1.94812e-05 8.37903e-06 3.40333e-28 1.93687e-05 8.85618e-27 1.94251e-05)
(1.95866e-05 8.42709e-06 7.89265e-26 1.94685e-05 1.19054e-26 1.95277e-05)
(1.96926e-05 8.47597e-06 -1.58362e-25 1.95689e-05 -5.48669e-26 1.96309e-05)
(1.97989e-05 8.52551e-06 4.79516e-25 1.96699e-05 -4.22641e-26 1.97346e-05)
(1.99052e-05 8.57567e-06 -2.94461e-25 1.97711e-05 3.23391e-26 1.98384e-05)
(2.00115e-05 8.62615e-06 7.76481e-28 1.98725e-05 8.47271e-28 1.99422e-05)
(2.01173e-05 8.67697e-06 -8.12513e-26 1.99738e-05 -4.15952e-27 2.00458e-05)
(2.02225e-05 8.7279e-06 5.15038e-25 2.00747e-05 3.48662e-26 2.01488e-05)
(2.03265e-05 8.77892e-06 1.42362e-24 2.01748e-05 -1.50841e-26 2.02509e-05)
(2.04292e-05 8.82964e-06 1.65025e-25 2.02739e-05 5.32321e-28 2.03518e-05)
(2.05299e-05 8.88001e-06 -1.44578e-24 2.03715e-05 -2.76622e-27 2.0451e-05)
(2.06285e-05 8.92978e-06 1.62157e-24 2.04673e-05 1.30627e-26 2.05482e-05)
(2.07244e-05 8.97876e-06 1.46909e-24 2.05609e-05 9.26114e-27 2.06429e-05)
(2.08171e-05 9.02655e-06 -1.64226e-24 2.06517e-05 -2.9696e-26 2.07347e-05)
(2.09062e-05 9.07334e-06 -1.81847e-27 2.07395e-05 7.37641e-26 2.08231e-05)
(2.09908e-05 9.11831e-06 -1.73351e-25 2.08235e-05 -8.63036e-26 2.09075e-05)
(2.10706e-05 9.16169e-06 -5.20265e-25 2.09032e-05 -9.11066e-26 2.09872e-05)
(2.11447e-05 9.20238e-06 -7.22609e-27 2.09779e-05 -1.21629e-25 2.10616e-05)
(2.12128e-05 9.24146e-06 2.65063e-24 2.10475e-05 -1.32764e-26 2.11304e-05)
(2.12733e-05 9.277e-06 -4.35854e-24 2.11102e-05 -4.5375e-26 2.11921e-05)
(2.13267e-05 9.30981e-06 -1.20804e-26 2.11664e-05 -4.54116e-28 2.12467e-05)
(2.13711e-05 9.33795e-06 -3.7374e-25 2.12147e-05 -2.08116e-26 2.12932e-05)
(2.14079e-05 9.36369e-06 3.49129e-24 2.12564e-05 1.51781e-25 2.13323e-05)
(2.14342e-05 9.38442e-06 -1.32674e-24 2.1289e-05 1.24006e-25 2.13619e-05)
(2.14514e-05 9.40264e-06 1.33625e-24 2.13136e-05 -8.22462e-26 2.13826e-05)
(2.14556e-05 9.41352e-06 5.01962e-27 2.13259e-05 -1.86724e-26 2.13911e-05)
(2.14495e-05 9.4202e-06 -9.55242e-27 2.13292e-05 -2.41521e-28 2.13895e-05)
(2.14303e-05 9.42117e-06 3.20944e-24 2.13209e-05 1.06516e-25 2.13758e-05)
(2.13986e-05 9.41629e-06 9.42379e-27 2.13015e-05 3.51885e-27 2.13502e-05)
(2.13526e-05 9.40559e-06 -1.30606e-28 2.12687e-05 -2.30309e-26 2.13107e-05)
(2.12919e-05 9.38791e-06 5.08414e-26 2.12224e-05 -1.78073e-26 2.12573e-05)
(2.12161e-05 9.36544e-06 -1.43204e-24 2.11609e-05 -3.63085e-26 2.11884e-05)