/*--------------------------------*- C++ -*----------------------------------*\
| =========                 |                                                 |
| \\      /  F ield         | OpenFOAM: The Open Source CFD Toolbox           |
|  \\    /   O peration     | Version:  2306                                  |
|   \\  /    A nd           | Website:  www.openfoam.com                      |
|    \\/     M anipulation  |                                                 |
\*---------------------------------------------------------------------------*/
// * * * * * * * * * * * * * * * * * * * * * * * * * * * * * * * * * * * * * //
FoamFile
{
    version         2;
    format          ascii;
    class           volSymmTensorField;
    location        "0";
    object          S;
}

dimensions      [ 0 0 -1 0 0 0 0 ];

internalField   nonuniform List<symmTensor> 
14751
(
(0.000216815 -0.71361 -1.44197e-28 -0.000257651 -2.30771e-33 0)
(0.000215105 -0.710006 5.58959e-26 -0.000183977 3.77135e-23 1.66395e-54)
(0.000231427 -0.708308 1.1362e-24 -0.000255633 6.87216e-24 -1.66369e-54)
(0.000349972 -0.704263 2.80325e-22 -0.000410394 1.69137e-24 -1.28129e-45)
(0.000383768 -0.699585 -1.1926e-24 -0.00043036 -2.87261e-28 0)
(0.00041793 -0.694664 1.25301e-24 -0.000507181 -4.68863e-22 0)
(0.00045522 -0.688873 1.37088e-22 -0.000544364 4.79449e-23 -1.90624e-44)
(0.000490389 -0.682747 -2.31725e-24 -0.000608537 -1.28978e-22 -4.0108e-46)
(0.000522052 -0.675854 1.15017e-26 -0.000646601 9.00291e-23 0)
(0.00054036 -0.668765 6.66842e-26 -0.000677652 -8.66399e-22 0)
(0.000556458 -0.661293 4.71997e-24 -0.000705766 -2.50781e-22 3.11941e-45)
(0.000564127 -0.653706 2.58036e-23 -0.000716868 1.31112e-21 -2.01672e-48)
(0.000568999 -0.645948 -2.56879e-23 -0.000736237 -1.31717e-23 2.01677e-48)
(0.000567781 -0.638154 5.09902e-23 -0.000730573 -1.17872e-21 -1.38793e-47)
(0.000564961 -0.630349 -5.31721e-23 -0.000742633 -3.03546e-23 1.38795e-47)
(0.000552446 -0.622575 -2.26921e-25 -0.000718916 3.45538e-22 0)
(0.000541323 -0.615041 -4.80384e-23 -0.000720407 -3.79107e-22 1.68078e-45)
(0.000527599 -0.607516 6.7663e-23 -0.000696667 -1.05006e-21 5.05667e-44)
(0.000511281 -0.60031 2.16056e-23 -0.000685784 -3.5123e-22 -6.87504e-48)
(0.000492962 -0.59319 -2.53626e-23 -0.000660234 1.53114e-21 6.8751e-48)
(0.000468351 -0.586453 -6.57835e-26 -0.000633551 -1.32969e-30 0)
(0.000447417 -0.579961 -2.39028e-23 -0.000608793 -2.05308e-23 -2.20335e-45)
(0.000423957 -0.573773 -4.03885e-25 -0.000580624 -1.39851e-24 6.07376e-45)
(0.000400258 -0.567901 5.06903e-23 -0.000551987 4.30094e-23 -8.86604e-45)
(0.000376196 -0.562343 4.46973e-25 -0.00052266 1.32003e-24 5.88973e-45)
(0.000351898 -0.557116 -1.99371e-23 -0.000492515 -1.70212e-21 1.97097e-44)
(0.000327897 -0.552211 -2.10502e-24 -0.000462891 8.42441e-22 1.0479e-44)
(0.000303698 -0.547637 1.04658e-23 -0.000432046 -8.33159e-22 5.02286e-46)
(0.00028017 -0.543393 -2.43528e-23 -0.000402617 -8.57864e-22 -4.3185e-44)
(0.000257092 -0.539464 2.5576e-23 -0.000372922 1.51602e-23 -1.76162e-45)
(0.000234264 -0.535854 1.65756e-24 -0.000343737 -6.32943e-22 3.25e-44)
(0.000211981 -0.53255 1.37275e-23 -0.000314986 -2.03095e-22 1.01052e-44)
(0.000190152 -0.529547 1.29286e-23 -0.000286777 4.2912e-24 -2.13327e-46)
(0.000169177 -0.52684 5.60609e-24 -0.000259273 -9.91032e-23 2.46549e-45)
(0.000148488 -0.524415 -8.84939e-24 -0.000232247 9.02318e-23 1.9182e-45)
(0.000128024 -0.522263 6.35986e-23 -0.000205481 8.18947e-22 -1.64903e-43)
(0.000108374 -0.520378 2.8862e-24 -0.000179591 2.98043e-22 -3.75799e-49)
(8.96664e-05 -0.518751 -5.66325e-24 -0.000154757 -1.96799e-22 3.75778e-49)
(7.15965e-05 -0.517387 2.26955e-25 -0.000130268 -9.47583e-23 0)
(5.42686e-05 -0.516271 -8.52724e-25 -0.000107125 4.57301e-23 0)
(3.70142e-05 -0.515398 -2.64785e-23 -8.35204e-05 2.63151e-22 2.61864e-44)
(2.01539e-05 -0.514765 -2.39444e-23 -6.10755e-05 3.68965e-23 3.67175e-45)
(3.84485e-06 -0.514362 2.64263e-23 -3.83977e-05 1.79893e-22 -1.79011e-44)
(-1.21859e-05 -0.514188 -8.1525e-25 -1.69862e-05 1.47257e-22 0)
(-2.77688e-05 -0.514234 -1.04536e-29 4.74068e-06 2.06895e-23 0)
(-4.31693e-05 -0.514497 1.82498e-25 2.54325e-05 -1.95656e-23 0)
(-5.83291e-05 -0.514973 6.22894e-24 4.66828e-05 1.17425e-23 -2.92131e-46)
(-7.30154e-05 -0.51566 -6.43644e-24 6.6503e-05 3.24022e-24 8.05985e-47)
(-8.7756e-05 -0.516549 6.10792e-24 8.727e-05 3.71328e-24 -9.21922e-47)
(-0.000102372 -0.517649 -6.1034e-24 0.000107048 9.14033e-25 2.25247e-47)
(-0.00011657 -0.518947 6.37435e-24 0.000126968 1.8086e-23 -4.49903e-46)
(-0.000130693 -0.52045 -6.67164e-24 0.000146372 -9.17665e-24 -2.28367e-46)
(-0.000144648 -0.522151 -5.67543e-24 0.000166082 6.80496e-23 1.70227e-45)
(-0.000158905 -0.524052 -6.59886e-25 0.000185512 1.38235e-23 -9.38093e-48)
(-0.000172981 -0.526155 -5.14245e-24 0.000205501 -1.47273e-23 -3.53311e-46)
(-0.000186942 -0.528456 7.53393e-26 0.000224391 -4.00453e-26 -8.95528e-48)
(-0.000201079 -0.530955 -1.39061e-24 0.000244445 -6.78465e-25 -4.13929e-48)
(-0.000215097 -0.533658 1.33029e-25 0.000263478 1.03349e-29 0)
(-0.000228994 -0.536557 6.6741e-24 0.000283073 -1.99555e-23 4.96401e-46)
(-0.000242831 -0.539656 -2.78285e-25 0.000301808 2.094e-23 0)
(-0.000256667 -0.542954 -1.35072e-23 0.000321237 1.46882e-22 7.30792e-45)
(-0.000270569 -0.546453 1.75497e-25 0.000339995 -3.22601e-23 0)
(-0.000284287 -0.550149 -2.58587e-25 0.000359266 3.23447e-23 0)
(-0.000297746 -0.554047 -2.72868e-23 0.000377448 -2.2183e-22 -2.20753e-44)
(-0.00031121 -0.558138 3.37541e-23 0.000396056 -1.8996e-22 1.88309e-44)
(-0.000324379 -0.562431 -1.77151e-23 0.000413994 1.59604e-23 1.86596e-46)
(-0.000337516 -0.566909 4.01711e-23 0.000431844 1.06995e-25 -1.27734e-46)
(-0.000350705 -0.571581 -2.97927e-25 0.000449485 -1.58997e-23 0)
(-0.00036316 -0.576433 -1.20504e-23 0.000466078 1.74936e-23 1.20212e-49)
(-0.000374911 -0.581461 1.21493e-23 0.000482262 -1.75703e-23 -1.20214e-49)
(-0.000386415 -0.586663 1.22326e-23 0.000497426 -5.09643e-24 2.56042e-48)
(-0.00039732 -0.592032 -1.96674e-23 0.00051239 5.1023e-24 1.24183e-46)
(-0.000407484 -0.59756 2.5607e-27 0.000525661 -1.69834e-23 0)
(-0.000416556 -0.603234 7.50346e-24 0.000538528 -8.44117e-23 2.09987e-45)
(-0.000425157 -0.609042 1.30579e-25 0.000549691 1.5302e-22 0)
(-0.000432868 -0.614987 -2.5776e-23 0.000561298 1.64098e-22 -7.90509e-49)
(-0.000438875 -0.621041 2.55397e-23 0.000568769 -2.6314e-24 7.90521e-49)
(-0.000443243 -0.627188 3.54684e-25 0.000576676 2.0754e-28 0)
(-0.000447209 -0.633401 -3.44159e-23 0.000581292 3.17503e-22 7.99019e-45)
(-0.000448927 -0.639692 2.61098e-23 0.000587228 -4.22821e-24 -9.18385e-47)
(-0.000447704 -0.645989 1.91691e-25 0.000584132 1.2764e-28 0)
(-0.000444889 -0.652292 -3.18497e-26 0.00058659 5.2961e-22 0)
(-0.000441256 -0.658558 4.08736e-24 0.000579165 -1.09444e-22 1.36132e-45)
(-0.0004349 -0.664801 1.06573e-24 0.00057979 4.7468e-22 -1.47612e-45)
(-0.000424294 -0.670928 -2.81376e-25 0.000561162 -4.93795e-22 0)
(-0.000410106 -0.676917 2.85442e-23 0.000554813 -3.87611e-22 -6.8228e-46)
(-0.000388993 -0.682689 -6.02993e-23 0.000521445 -2.45233e-22 -1.6934e-45)
(-0.000369701 -0.688153 2.75057e-23 0.000510265 1.23826e-22 -6.74959e-46)
(-0.000344114 -0.693432 2.23677e-25 0.000473157 6.3855e-23 0)
(-0.000312233 -0.698227 7.23369e-24 0.000441665 4.41312e-22 -9.51079e-50)
(-0.000273962 -0.702667 -6.96469e-24 0.000394363 -5.79513e-23 9.51073e-50)
(-0.00023341 -0.706453 -1.76469e-23 0.000345648 5.24764e-22 2.61093e-44)
(-0.000182455 -0.709813 -1.02305e-26 0.000292836 4.32279e-22 1.75742e-48)
(-0.000134096 -0.712263 1.75165e-23 0.000219914 -7.60292e-25 3.59372e-47)
(-8.07805e-05 -0.714346 -3.55538e-24 0.000183932 4.70479e-25 -1.18769e-50)
(-1.20375e-05 -0.715382 3.55347e-24 6.31638e-05 -4.54568e-24 1.18766e-50)
(3.70228e-05 -0.715697 1.78265e-23 5.45283e-05 1.20523e-22 -5.99671e-45)
(5.34177e-05 -0.71544 1.78565e-25 -3.21591e-05 -7.80614e-27 -6.27462e-54)
(8.88091e-05 -0.715177 -1.13316e-25 -5.79398e-06 -1.76833e-25 6.27441e-54)
(0.000254434 -0.241982 1.86519e-24 -0.000289998 -1.28834e-29 0)
(0.000272813 -0.241148 2.93111e-21 -0.000269488 -3.0211e-23 -3.28399e-44)
(0.000323349 -0.240478 1.56933e-22 -0.000317478 6.27664e-24 6.58326e-45)
(0.000489136 -0.239021 -4.26201e-22 -0.000463327 -4.95719e-22 -5.34379e-45)
(0.00055599 -0.237315 -2.20948e-23 -0.000504247 1.75909e-25 0)
(0.000624198 -0.235349 -5.67199e-21 -0.000570112 3.72793e-22 -8.44371e-43)
(0.000697793 -0.232995 1.94661e-22 -0.00061609 -2.39891e-23 1.01218e-43)
(0.000764992 -0.230394 -9.05937e-22 -0.000674168 -8.13403e-24 -1.42118e-43)
(0.000824799 -0.227484 5.64843e-22 -0.000716278 2.62581e-21 5.92893e-44)
(0.000864178 -0.224416 -5.39483e-21 -0.000745859 6.72668e-22 -1.60979e-42)
(0.000898243 -0.221165 -1.05283e-21 -0.000770953 3.2292e-21 3.20437e-42)
(0.000920946 -0.217805 6.37532e-21 -0.000781889 3.2075e-21 -5.93197e-41)
(0.000936847 -0.214343 -1.26926e-22 -0.000794674 2.87953e-21 0)
(0.000944818 -0.210822 -5.04243e-21 -0.000790683 -3.21872e-21 -5.46065e-41)
(0.000945798 -0.207268 7.85133e-23 -0.000794165 -5.55555e-24 0)
(0.000934594 -0.203711 1.04774e-21 -0.000773577 2.08386e-24 -4.88115e-45)
(0.000922097 -0.2002 -1.13538e-21 -0.000765714 5.2967e-21 4.86169e-45)
(0.000905795 -0.196703 -3.70331e-21 -0.000743268 1.69938e-21 1.40899e-41)
(0.000882853 -0.193298 -8.92163e-22 -0.000725213 -3.31153e-23 -4.40879e-42)
(0.000856367 -0.189949 4.58905e-21 -0.000698153 -1.75472e-21 5.05435e-42)
(0.000820593 -0.186729 -7.92682e-23 -0.000666674 6.7021e-22 0)
(0.000788925 -0.183609 1.98569e-25 -0.000637359 -6.45833e-22 0)
(0.000752906 -0.18061 3.05932e-24 -0.000605016 2.81278e-24 1.52842e-47)
(0.000715807 -0.17774 -3.21264e-24 -0.000572078 -3.86496e-22 4.695e-46)
(0.000677671 -0.175004 -8.99999e-23 -0.000538609 3.42578e-22 1.43458e-47)
(0.000638889 -0.172406 -4.15579e-21 -0.000504589 1.21823e-21 -3.39017e-42)
(0.000599839 -0.169947 2.11906e-21 -0.000471014 -5.99103e-22 -8.6056e-43)
(0.000560244 -0.167631 -2.13597e-21 -0.00043682 -2.20691e-21 -1.86626e-41)
(0.000521527 -0.165457 -1.97234e-21 -0.00040385 9.66302e-22 1.4637e-42)
(0.000483126 -0.163423 -1.16626e-24 -0.000371211 -3.66917e-22 6.52352e-46)
(0.000445085 -0.161529 -1.57364e-21 -0.000339229 6.1397e-22 1.66382e-42)
(0.00040796 -0.159771 -4.15026e-22 -0.000308019 1.33639e-21 -1.26333e-42)
(0.000371455 -0.158146 -5.68299e-24 -0.000277592 1.59476e-22 1.83604e-46)
(0.000336044 -0.156653 -2.13497e-22 -0.00024813 -3.53751e-22 -4.84631e-45)
(0.000301135 -0.155288 2.58594e-22 -0.000219542 1.88143e-22 2.72378e-45)
(0.000267328 -0.154045 1.88146e-21 -0.000191517 -6.01933e-22 -4.93346e-43)
(0.000234189 -0.152923 6.92837e-22 -0.000164426 1.0008e-21 -3.9234e-42)
(0.000202151 -0.151918 -5.49873e-22 -0.000138453 1.56526e-21 4.58567e-42)
(0.000171053 -0.15103 -1.9641e-22 -0.000113075 -1.22735e-23 -2.11395e-43)
(0.000140796 -0.150257 1.23491e-22 -8.89278e-05 5.88392e-24 -1.21044e-43)
(0.000111138 -0.149595 7.53401e-22 -6.48889e-05 -1.71821e-22 5.58507e-44)
(8.20532e-05 -0.149042 1.18968e-22 -4.17857e-05 5.34014e-22 -1.27677e-43)
(5.37264e-05 -0.148596 4.50177e-22 -1.89309e-05 -2.07612e-22 1.01797e-43)
(2.59244e-05 -0.148253 4.07724e-22 2.93799e-06 -5.7127e-22 7.40878e-43)
(-1.08503e-06 -0.148011 4.27864e-23 2.46176e-05 1.8608e-24 -3.09342e-44)
(-2.78797e-05 -0.14787 -5.22134e-23 4.56038e-05 2.27037e-22 -2.19561e-45)
(-5.42249e-05 -0.147827 2.16837e-23 6.66441e-05 -2.47846e-24 3.81131e-45)
(-8.00736e-05 -0.147882 1.79318e-23 8.67351e-05 4.32617e-24 -1.09891e-45)
(-0.000105822 -0.148034 8.27595e-25 0.000107222 6.14877e-25 -1.55193e-46)
(-0.000131375 -0.148282 1.26974e-23 0.000127122 -1.36052e-25 -1.22662e-46)
(-0.000156384 -0.148625 5.26854e-23 0.000146938 -2.84068e-23 2.97242e-45)
(-0.000181561 -0.149064 -1.76089e-23 0.000166455 1.56192e-23 6.18672e-45)
(-0.000206406 -0.1496 2.69006e-22 0.000186069 -1.42143e-23 -4.22604e-44)
(-0.000231638 -0.150232 4.81697e-23 0.000205627 1.7092e-22 -3.18363e-46)
(-0.000256714 -0.15096 -4.77249e-23 0.000225465 2.6847e-25 6.30379e-46)
(-0.000281659 -0.151785 6.52834e-25 0.000244725 -4.22623e-23 0)
(-0.000306837 -0.152706 1.32218e-27 0.000264699 4.29244e-23 0)
(-0.000332054 -0.153727 -1.16327e-24 0.000284221 -2.27112e-27 0)
(-0.000356905 -0.154844 -1.12589e-22 0.000304036 2.83468e-22 -9.10974e-46)
(-0.00038195 -0.156061 1.1711e-22 0.000323494 -2.64952e-22 4.87865e-46)
(-0.000407011 -0.157376 9.98005e-22 0.000343368 -1.01006e-22 -8.58534e-44)
(-0.000432167 -0.158791 -2.26998e-22 0.000363039 -5.76902e-23 5.70848e-47)
(-0.000457128 -0.160307 2.11467e-22 0.000383027 5.77836e-23 -5.71457e-47)
(-0.00048197 -0.161924 -2.01619e-21 0.000402431 1.61134e-22 -1.72914e-43)
(-0.000506558 -0.163641 -2.05803e-21 0.000422135 1.31872e-22 -2.227e-43)
(-0.000530893 -0.16546 2.38677e-22 0.000441465 -2.40838e-22 -1.00499e-44)
(-0.000555127 -0.167378 -2.41958e-23 0.000460664 -2.18671e-22 2.59689e-44)
(-0.000578727 -0.169394 -2.30172e-22 0.000479845 -5.48716e-23 -1.59194e-44)
(-0.000601759 -0.171507 4.71725e-22 0.000498198 2.84587e-24 1.05576e-46)
(-0.000623927 -0.173715 -4.73975e-22 0.000516131 2.00744e-22 -1.05778e-46)
(-0.000645501 -0.176018 -4.8133e-22 0.000533336 -9.68232e-24 8.18249e-47)
(-0.000666094 -0.178413 4.89435e-22 0.000550138 9.77724e-24 -1.92138e-46)
(-0.000685508 -0.180896 2.22875e-21 0.000565606 1.05655e-23 1.62853e-44)
(-0.000703451 -0.183465 4.52515e-21 0.000580314 3.53102e-23 4.45616e-43)
(-0.000720706 -0.186117 -5.07521e-21 0.00059373 -1.00792e-22 8.43216e-43)
(-0.00073624 -0.188849 -4.14109e-21 0.000606652 -1.00342e-22 4.6003e-44)
(-0.000749283 -0.191653 -8.33552e-24 0.000616377 -1.01854e-22 0)
(-0.000759824 -0.194522 1.59912e-23 0.000625143 1.04955e-22 0)
(-0.000769478 -0.19745 -4.82567e-21 0.000631499 -7.57027e-22 -6.11256e-42)
(-0.000775162 -0.200431 -1.60088e-23 0.000636807 3.53168e-24 0)
(-0.000777117 -0.203448 2.66659e-23 0.00063562 -1.30533e-21 0)
(-0.000775928 -0.206495 -6.15504e-21 0.000635446 1.11793e-21 2.15007e-41)
(-0.000773339 -0.209559 1.11057e-21 0.000629089 -9.86222e-24 -1.27609e-42)
(-0.000765019 -0.212626 -5.19798e-21 0.000624064 -3.56467e-22 8.78712e-43)
(-0.000750882 -0.215674 5.20496e-21 0.000606396 3.72268e-22 9.06867e-43)
(-0.000729068 -0.218677 4.15707e-21 0.000591369 2.13196e-21 -2.46379e-41)
(-0.000699238 -0.221617 2.39759e-21 0.000558588 -1.79042e-21 2.34807e-42)
(-0.000668733 -0.224456 -1.17826e-21 0.000535944 1.63041e-23 -3.93606e-43)
(-0.00062916 -0.22721 -5.93595e-22 0.000496356 4.92796e-24 7.7449e-43)
(-0.000578558 -0.229791 -4.98165e-21 0.00045482 -2.93385e-22 6.67003e-43)
(-0.000518951 -0.232214 6.26245e-22 0.000400986 -1.12208e-22 -7.10032e-43)
(-0.000454453 -0.234403 -6.28919e-21 0.000343767 -4.14591e-22 1.63492e-42)
(-0.00037607 -0.236383 -5.7826e-21 0.0002792 -3.18993e-22 1.09474e-42)
(-0.000301358 -0.238065 -3.79252e-23 0.000204331 1.36959e-21 -3.56067e-47)
(-0.000216362 -0.239507 -2.7657e-25 0.000145627 -4.45618e-25 0)
(-0.000118853 -0.240609 8.66201e-23 3.68614e-05 -5.04433e-22 -2.28636e-44)
(-4.08853e-05 -0.241402 -3.04242e-21 -6.40499e-06 -8.43599e-23 2.23763e-43)
(-5.34144e-06 -0.241944 -5.93646e-24 -6.98287e-05 -2.65769e-24 3.50988e-50)
(7.47043e-05 -0.242223 1.14476e-23 -8.63482e-05 1.46597e-25 5.42338e-49)
(0.000290842 -0.205659 -1.68143e-24 -0.000320586 3.67285e-26 0)
(0.000367755 -0.204751 -2.80523e-21 -0.000342747 -3.81596e-23 3.14367e-44)
(0.000446278 -0.203659 1.72884e-22 -0.000439985 -6.27765e-24 1.81368e-43)
(0.000631655 -0.202133 -1.38008e-20 -0.000635605 3.79534e-22 -2.27285e-42)
(0.000737445 -0.200373 4.84096e-23 -0.000721453 1.42176e-23 -2.44648e-45)
(0.000832523 -0.198356 5.37565e-21 -0.000832345 4.67474e-22 8.03005e-43)
(0.000936847 -0.196058 -1.88404e-23 -0.000924188 -3.36643e-21 0)
(0.00102572 -0.193563 1.4001e-22 -0.00102243 1.19188e-22 0)
(0.00110739 -0.190882 2.54102e-20 -0.00109974 -6.7958e-21 2.17971e-40)
(0.00116453 -0.18808 5.07281e-21 -0.00115832 1.00304e-21 1.50771e-42)
(0.00121188 -0.185167 2.46244e-20 -0.00120783 -2.31222e-21 -2.34242e-41)
(0.00124719 -0.18218 2.19027e-20 -0.00123995 -3.98778e-21 1.11188e-41)
(0.00126939 -0.17915 1.78776e-20 -0.00126857 -2.60113e-21 3.40597e-41)
(0.00128452 -0.176096 -1.86058e-20 -0.00127731 -3.00368e-21 -3.21012e-40)
(0.00128514 -0.173059 2.03394e-22 -0.00128744 -6.37829e-21 1.86314e-41)
(0.00127661 -0.17004 3.25769e-22 -0.00127039 6.39637e-21 3.27093e-41)
(0.00125926 -0.167083 2.44754e-20 -0.0012626 -3.24221e-21 -9.68818e-41)
(0.0012406 -0.164171 6.45236e-21 -0.00123764 1.15077e-21 -2.02931e-41)
(0.00120986 -0.16135 -2.42673e-22 -0.0012129 -1.98399e-22 2.29988e-41)
(0.00117604 -0.158604 -6.49717e-21 -0.00117643 3.879e-21 -1.61956e-41)
(0.00113054 -0.155965 2.37465e-21 -0.00113289 -4.36978e-21 -2.07933e-44)
(0.00108827 -0.153427 -2.32392e-21 -0.0010909 -5.13018e-21 2.06782e-44)
(0.00104079 -0.151 1.81612e-23 -0.00104384 -5.78804e-22 0)
(0.000991393 -0.14869 -1.07518e-21 -0.000994955 -4.03703e-23 -5.60546e-45)
(0.000940526 -0.146497 1.19339e-21 -0.000944496 -4.62537e-21 5.57886e-45)
(0.000888496 -0.144426 3.71209e-21 -0.000892568 2.20415e-21 3.03182e-42)
(0.000835865 -0.142476 -2.06667e-21 -0.000840431 3.8661e-21 7.64299e-43)
(0.000782636 -0.140646 -7.19996e-21 -0.000787076 3.46306e-21 3.83009e-41)
(0.000730112 -0.138938 2.93977e-21 -0.000734866 2.55679e-22 -3.39013e-42)
(0.000678033 -0.137348 -1.04031e-21 -0.000682721 -2.80264e-23 2.10614e-42)
(0.000626454 -0.135874 1.87594e-21 -0.000631188 6.23191e-22 -3.87485e-43)
(0.000575823 -0.134514 4.33891e-21 -0.000580469 1.46996e-21 -3.18651e-41)
(0.000525993 -0.133264 3.90033e-22 -0.000530637 3.06198e-22 2.51396e-43)
(0.000477593 -0.132123 -9.77387e-22 -0.000481974 -2.23547e-22 -5.05481e-43)
(0.000429941 -0.131088 4.6699e-22 -0.000434293 -7.0995e-23 2.54129e-43)
(0.000383705 -0.130154 -1.65291e-21 -0.000387718 -1.00816e-21 5.62014e-43)
(0.000338253 -0.129319 3.49356e-21 -0.000342138 -9.61347e-22 1.61796e-42)
(0.00029418 -0.12858 4.96431e-21 -0.000297892 -7.26021e-22 -1.04422e-41)
(0.000251215 -0.127938 -9.48886e-23 -0.000254507 8.30117e-23 0)
(0.00020922 -0.127389 -1.35195e-23 -0.000212579 -3.97561e-23 0)
(0.000168149 -0.12693 -5.64679e-22 -0.000171018 -1.26526e-21 -6.65843e-44)
(0.000127756 -0.126561 1.82517e-21 -0.000130627 -6.02767e-22 8.70009e-43)
(8.85905e-05 -0.126278 -7.13006e-22 -9.08566e-05 -4.22951e-23 -6.79643e-43)
(5.00136e-05 -0.126079 -2.10083e-21 -5.23479e-05 1.20104e-21 5.3371e-42)
(1.2513e-05 -0.125962 4.9435e-23 -1.42233e-05 -4.13605e-22 -3.07423e-43)
(-2.49537e-05 -0.125928 9.07851e-22 2.31391e-05 -2.3375e-22 2.38075e-43)
(-6.15301e-05 -0.125974 -1.38597e-23 6.03851e-05 4.44614e-22 0)
(-9.77624e-05 -0.1261 2.21568e-25 9.65399e-05 -3.23786e-23 0)
(-0.000133618 -0.126306 1.43948e-23 0.000133092 -5.82296e-24 -1.60901e-49)
(-0.000169421 -0.12659 -1.64853e-23 0.00016893 1.92211e-24 1.60889e-49)
(-0.000204539 -0.126953 -1.09558e-22 0.000204587 -1.18963e-22 -4.87628e-45)
(-0.000239913 -0.127395 5.88466e-23 0.000240051 1.77406e-23 2.58986e-45)
(-0.000274915 -0.127916 -8.10702e-23 0.000275572 -6.42372e-23 -2.27385e-44)
(-0.000310371 -0.128516 9.26337e-22 0.000311122 -1.17282e-22 -8.84064e-44)
(-0.000345517 -0.129195 -1.2727e-23 0.000346913 -6.59307e-23 0)
(-0.000380729 -0.129954 -2.37719e-22 0.000382116 -5.48959e-22 2.38404e-47)
(-0.000416077 -0.130792 2.4293e-22 0.000418127 -5.44934e-22 -2.38607e-47)
(-0.000451525 -0.131711 1.47665e-23 0.000453616 5.15308e-26 0)
(-0.000486606 -0.132711 2.13269e-21 0.000489352 -6.75384e-22 2.78977e-42)
(-0.000521993 -0.133792 -2.18973e-21 0.000524773 2.33221e-22 8.23184e-44)
(-0.000557143 -0.134955 -8.63543e-22 0.000560573 -1.97354e-22 7.05271e-44)
(-0.000592657 -0.136201 -4.91531e-22 0.000596146 2.30574e-23 1.68909e-46)
(-0.000627766 -0.137529 5.17134e-22 0.000631881 -2.30307e-23 -1.69212e-46)
(-0.000662809 -0.13894 1.80683e-21 0.000666928 1.34328e-22 1.70321e-43)
(-0.000697407 -0.140434 1.79306e-21 0.000702067 3.21133e-22 1.83479e-43)
(-0.000731671 -0.142011 -4.07963e-21 0.0007366 -3.33626e-22 -6.18375e-42)
(-0.000765583 -0.143671 -4.08652e-21 0.000770752 1.84397e-22 -7.7711e-44)
(-0.000798633 -0.145411 -1.04711e-21 0.000804299 9.75112e-24 -8.02607e-43)
(-0.000830922 -0.147232 1.51343e-23 0.000836655 9.91041e-24 0)
(-0.000861951 -0.149132 9.6029e-21 0.000868154 -1.38541e-22 -9.65845e-43)
(-0.000892093 -0.15111 -1.12199e-21 0.000898394 -2.10747e-22 9.77026e-47)
(-0.000920811 -0.153163 1.1159e-21 0.000927579 -2.04284e-23 -9.80646e-47)
(-0.000948031 -0.155291 -2.00253e-21 0.000954691 -7.46049e-23 -1.46182e-44)
(-0.000973162 -0.15749 -2.91706e-21 0.000980353 3.53163e-22 -1.80224e-43)
(-0.000997123 -0.159757 4.12905e-21 0.001004 2.40116e-22 1.66328e-43)
(-0.00101851 -0.162089 3.00958e-21 0.00102614 -7.21403e-22 -1.19599e-42)
(-0.00103694 -0.164481 2.43407e-21 0.00104378 -1.11378e-23 -2.53655e-45)
(-0.00105157 -0.166926 -2.47296e-21 0.00105938 -9.27739e-23 2.55001e-45)
(-0.00106485 -0.169418 1.53209e-20 0.00107145 -5.84545e-22 3.11e-41)
(-0.00107233 -0.171951 -2.85794e-23 0.00108054 1.19094e-23 0)
(-0.00107584 -0.174515 2.26441e-20 0.0010816 1.95564e-21 -4.02313e-41)
(-0.00107364 -0.177098 -1.82681e-20 0.00108206 -3.99199e-21 -1.49196e-40)
(-0.00107019 -0.179694 -8.21959e-23 0.0010748 9.64335e-23 0)
(-0.00105678 -0.182279 4.78647e-21 0.00106546 -8.13708e-22 -8.07244e-43)
(-0.00103813 -0.184849 -4.69924e-21 0.00104098 3.69758e-21 -8.36712e-43)
(-0.00100641 -0.187369 -2.94989e-20 0.00101512 -9.54051e-22 5.50838e-41)
(-0.000968296 -0.189843 2.47204e-20 0.000969498 1.60014e-21 1.2302e-41)
(-0.000923096 -0.192224 9.61957e-23 0.000930512 -1.17981e-22 0)
(-0.000869524 -0.194513 -1.75094e-23 0.00087082 -5.9643e-23 0)
(-0.000799515 -0.196663 3.74924e-21 0.000804027 2.54988e-21 -2.68913e-42)
(-0.000719762 -0.198664 1.48733e-21 0.000721439 4.86464e-23 1.34582e-42)
(-0.000631781 -0.20047 6.12577e-21 0.000631782 -5.17269e-22 3.2792e-43)
(-0.00052785 -0.202071 5.15793e-21 0.000531731 -3.88526e-22 -3.05157e-42)
(-0.000428083 -0.203435 -2.75636e-20 0.000421101 -1.12352e-21 9.1903e-42)
(-0.000309462 -0.204538 -9.7178e-23 0.000320985 1.02631e-21 0)
(-0.000192267 -0.205385 1.40054e-20 0.000176992 4.07105e-22 2.17889e-42)
(-7.91057e-05 -0.205898 2.54354e-21 9.74406e-05 -1.08297e-22 -4.37326e-43)
(-2.29026e-05 -0.20615 1.03996e-22 1.82337e-06 -1.12587e-25 1.83138e-44)
(0.00010232 -0.206054 -1.08972e-23 -6.95119e-05 7.31332e-25 -5.52795e-49)
(0.000331843 -0.175714 -3.88783e-21 -0.000363603 -1.75308e-24 8.48045e-46)
(0.000482392 -0.174748 -3.27509e-25 -0.000461352 -1.66361e-22 2.65941e-50)
(0.000584778 -0.173383 2.11663e-23 -0.00058177 -5.57764e-24 0)
(0.000773515 -0.171824 1.2543e-20 -0.000780477 1.89478e-21 2.31022e-42)
(0.000918204 -0.170048 4.01803e-22 -0.000907299 1.88154e-21 -3.10547e-43)
(0.0010343 -0.168021 -1.76369e-22 -0.00104009 2.07765e-21 -3.55675e-46)
(0.00116387 -0.165781 -5.81453e-20 -0.00115876 2.62988e-21 -4.78208e-41)
(0.00126762 -0.16339 -2.05535e-22 -0.00127182 4.11232e-24 0)
(0.00136481 -0.160897 -8.17417e-20 -0.00136568 9.4455e-22 -5.30434e-40)
(0.00143581 -0.158322 1.84798e-21 -0.00143824 -5.04219e-21 2.07066e-41)
(0.00149263 -0.155684 -2.32291e-20 -0.00149723 -8.02407e-21 2.20473e-41)
(0.00153747 -0.153006 -2.25876e-20 -0.00153908 -3.11928e-21 3.97845e-42)
(0.00156241 -0.150322 -1.91666e-20 -0.00157014 2.72601e-21 4.25865e-41)
(0.00158222 -0.147644 -3.23815e-20 -0.00158356 1.4449e-20 1.10669e-39)
(0.0015798 -0.145014 -4.33948e-20 -0.00159012 5.78346e-21 -1.25747e-41)
(0.00157335 -0.142423 4.32025e-20 -0.001575 -6.8513e-21 7.60549e-41)
(0.00154952 -0.139906 -2.07428e-20 -0.00156001 2.48008e-21 6.02377e-41)
(0.00152801 -0.137454 2.07605e-22 -0.00153182 -8.12173e-22 0)
(0.00148891 -0.135091 -2.32026e-21 -0.0014981 -9.61784e-22 3.02516e-41)
(0.00144813 -0.132811 2.75324e-20 -0.00145425 -2.43529e-21 -7.50555e-41)
(0.00139405 -0.130629 -2.28012e-20 -0.00140157 1.03565e-20 4.16381e-40)
(0.00134162 -0.128541 -2.40067e-20 -0.00134896 -1.72771e-21 -4.1267e-40)
(0.00128384 -0.126558 -2.15825e-21 -0.00129106 6.74758e-21 -3.59368e-42)
(0.00122345 -0.124679 -2.42015e-22 -0.00123065 7.65946e-21 -2.50914e-41)
(0.00116114 -0.122907 -2.05711e-20 -0.00116833 3.23379e-21 -3.1784e-41)
(0.00109734 -0.121241 2.97281e-21 -0.00110429 -1.23856e-21 2.47838e-41)
(0.00103278 -0.119682 2.01788e-20 -0.00103977 -1.08548e-20 3.68594e-40)
(0.000967649 -0.118226 1.03087e-20 -0.000974125 7.08833e-21 -3.40429e-41)
(0.000902932 -0.116874 -2.46357e-21 -0.000909471 -9.91864e-22 1.42243e-41)
(0.00083888 -0.115622 3.99839e-23 -0.000845031 -3.6088e-21 0)
(0.000775346 -0.11447 7.78773e-23 -0.00078133 -5.00977e-21 0)
(0.000712965 -0.113413 5.45238e-21 -0.000718586 -6.93666e-21 1.47863e-40)
(0.00065161 -0.112448 9.86761e-22 -0.000656953 -1.27854e-22 -3.53626e-45)
(0.000591654 -0.111575 -1.09708e-21 -0.00059665 3.82785e-21 3.52474e-45)
(0.000532778 -0.11079 1.98221e-24 -0.000537584 -3.65227e-21 0)
(0.000475662 -0.11009 -1.10706e-21 -0.000480024 -2.88868e-21 -3.27754e-42)
(0.000419385 -0.109471 -2.82248e-21 -0.000423532 -1.16485e-21 5.02278e-42)
(0.000364616 -0.108933 -3.74553e-21 -0.000368495 -1.51407e-21 5.90465e-42)
(0.000311234 -0.108473 7.04278e-23 -0.000314581 -4.57416e-25 0)
(0.000258836 -0.108092 -6.64102e-23 -0.000262136 -1.50379e-21 0)
(0.000207795 -0.107784 -4.47515e-21 -0.000210454 7.45031e-22 -4.57964e-42)
(0.000157409 -0.10755 -2.30604e-21 -0.000159974 -5.09975e-22 -1.33496e-42)
(0.00010867 -0.107388 6.46816e-22 -0.000110599 -1.40404e-21 7.39267e-43)
(6.05549e-05 -0.107293 6.2289e-21 -6.25348e-05 -1.34519e-22 -1.22624e-41)
(1.37224e-05 -0.107266 -2.05623e-21 -1.50259e-05 3.01161e-22 1.36705e-43)
(-3.314e-05 -0.107307 -1.12669e-21 3.18076e-05 5.57692e-22 -6.46457e-43)
(-7.88231e-05 -0.107415 2.34384e-21 7.82548e-05 -6.57507e-22 1.41909e-42)
(-0.000124413 -0.107589 -1.58435e-22 0.000123759 -4.55885e-23 1.6124e-43)
(-0.000169375 -0.107828 -2.98407e-23 0.000169393 1.85432e-22 -4.49412e-49)
(-0.000214281 -0.108133 2.54412e-23 0.000214411 3.78232e-24 4.49371e-49)
(-0.000258483 -0.108502 -6.17845e-22 0.000259138 -6.19608e-23 -3.0488e-43)
(-0.000303005 -0.108938 7.13179e-23 0.000303781 -3.46738e-22 1.74904e-44)
(-0.000347034 -0.109439 -8.97791e-24 0.000348371 5.97883e-23 0)
(-0.000391603 -0.110005 -6.90279e-22 0.000393057 -1.61208e-22 2.79535e-43)
(-0.000435747 -0.110638 -5.5099e-22 0.000437846 5.6926e-23 -6.22348e-43)
(-0.000480214 -0.111336 -4.30122e-21 0.000482253 4.24197e-22 -9.43054e-43)
(-0.000524447 -0.1121 -4.52339e-21 0.00052725 4.40767e-22 -3.01211e-43)
(-0.000569079 -0.112931 -1.15202e-23 0.000571896 -5.64863e-23 0)
(-0.000613172 -0.113829 -6.5572e-21 0.000616631 -7.21796e-22 -1.687e-41)
(-0.000657704 -0.114795 2.55285e-21 0.000661214 2.61657e-22 -4.14314e-43)
(-0.000701833 -0.115829 -5.61882e-22 0.000705984 1.06569e-22 3.40209e-43)
(-0.000746401 -0.116932 3.83496e-24 0.000750595 7.6522e-22 0)
(-0.000790288 -0.118103 -4.79703e-24 0.000795143 -1.24829e-22 0)
(-0.000834247 -0.119344 -1.11775e-21 0.00083912 -1.68603e-22 1.90748e-43)
(-0.000877442 -0.120653 2.25424e-21 0.000882879 7.81015e-22 2.98696e-43)
(-0.000920251 -0.122031 -6.86365e-21 0.000925957 6.04955e-22 8.3686e-42)
(-0.000962421 -0.123479 4.23987e-21 0.000968404 -4.65642e-22 1.70055e-43)
(-0.00100342 -0.124993 -1.12512e-23 0.00100985 -1.2277e-23 0)
(-0.00104347 -0.126575 1.18525e-21 0.00104997 6.06766e-23 4.17599e-43)
(-0.00108188 -0.128222 -7.56648e-21 0.00108887 -5.12223e-22 2.76813e-42)
(-0.0011191 -0.129937 -2.10711e-20 0.00112619 2.23261e-22 -1.76923e-42)
(-0.00115435 -0.131715 -2.46173e-21 0.00116195 -7.9408e-24 -1.41368e-42)
(-0.00118777 -0.133554 2.17442e-20 0.00119526 4.16033e-23 -3.31212e-43)
(-0.00121841 -0.135453 -2.4597e-20 0.00122655 -1.98144e-22 6.72307e-42)
(-0.00124749 -0.137409 -2.24827e-20 0.00125536 -1.41731e-22 -1.63938e-42)
(-0.00127304 -0.139418 2.53651e-20 0.00128165 4.58664e-22 7.42753e-42)
(-0.00129513 -0.141479 2.83551e-23 0.00130309 -1.15019e-21 0)
(-0.00131223 -0.143582 2.72968e-21 0.00132132 1.35898e-21 1.97956e-42)
(-0.00132741 -0.145728 8.27546e-21 0.00133534 1.44916e-21 -5.45853e-41)
(-0.00133489 -0.1479 1.16137e-22 0.00134457 1.95482e-21 1.40819e-41)
(-0.00133855 -0.150106 -4.30531e-20 0.00134593 2.15643e-22 6.98358e-41)
(-0.00133361 -0.152321 7.15639e-20 0.00134379 7.45022e-22 2.7638e-40)
(-0.00132762 -0.154545 2.00538e-22 0.00133421 7.53845e-24 0)
(-0.00130731 -0.15675 6.27373e-21 0.00131825 3.49351e-22 -3.4935e-41)
(-0.00128329 -0.158942 -5.92623e-20 0.00128874 -2.57638e-21 1.08619e-40)
(-0.00124039 -0.16109 2.27744e-20 0.00125209 -2.12865e-21 -3.18859e-41)
(-0.00119437 -0.163205 -2.31937e-20 0.00119864 1.42757e-21 -1.15312e-41)
(-0.00113294 -0.165223 -8.81025e-23 0.00114342 3.2773e-22 0)
(-0.00106558 -0.167159 1.69505e-22 0.00107003 4.28573e-24 0)
(-0.00097696 -0.16897 -5.75617e-20 0.000984088 -1.91038e-21 5.43709e-41)
(-0.000877621 -0.170641 -1.70777e-22 0.000882363 -6.3768e-23 0)
(-0.000766647 -0.172151 2.39049e-24 0.000770029 4.21537e-22 0)
(-0.000638941 -0.173478 -9.39493e-22 0.000646319 3.29058e-22 -1.79062e-42)
(-0.000516991 -0.174612 2.66994e-20 0.000513706 6.76945e-22 -6.21632e-42)
(-0.000368235 -0.175491 -3.01975e-20 0.000381688 -8.51579e-22 5.30824e-42)
(-0.000236428 -0.176167 -1.3022e-20 0.000224203 5.02503e-22 -1.63374e-42)
(-8.68579e-05 -0.176508 -4.7559e-22 0.000105722 7.01107e-22 3.4433e-43)
(-9.21102e-06 -0.176554 -1.07516e-24 -9.73685e-06 6.6487e-24 4.22648e-49)
(0.000158334 -0.176222 -6.0396e-23 -0.000126615 -6.35478e-25 4.63619e-48)
(0.000388029 -0.151323 -4.69743e-21 -0.000418108 -3.45885e-24 -3.55894e-45)
(0.000609018 -0.150308 -3.34429e-20 -0.000589895 1.44604e-22 -1.13899e-42)
(0.000728872 -0.148788 9.2214e-23 -0.000727442 3.67646e-25 0)
(0.000912458 -0.147228 6.60998e-20 -0.000920087 -2.33203e-22 -1.47038e-40)
(0.00109308 -0.14545 6.41801e-20 -0.00108366 1.53906e-22 -1.8853e-40)
(0.00122686 -0.143451 6.46375e-20 -0.00123196 -1.91639e-21 -4.19005e-41)
(0.00137631 -0.141287 5.42689e-20 -0.00137017 3.47675e-21 5.37555e-41)
(0.00148991 -0.139021 6.62897e-23 -0.0014918 -8.86122e-23 0)
(0.00159794 -0.136698 5.30299e-20 -0.00159612 -2.34033e-22 2.88084e-40)
(0.00167895 -0.134327 -5.9595e-20 -0.00167794 3.55561e-21 -3.21108e-41)