/*--------------------------------*- C++ -*----------------------------------*\
| =========                 |                                                 |
| \\      /  F ield         | OpenFOAM: The Open Source CFD Toolbox           |
|  \\    /   O peration     | Version:  2306                                  |
|   \\  /    A nd           | Website:  www.openfoam.com                      |
|    \\/     M anipulation  |                                                 |
\*---------------------------------------------------------------------------*/
// * * * * * * * * * * * * * * * * * * * * * * * * * * * * * * * * * * * * * //
FoamFile
{
    version         2;
    format          ascii;
    class           volVectorField;
    location        "0";
    object          Udns;
}

dimensions      [ 0 1 -1 0 0 0 0 ];

internalField   nonuniform List<vector> 
14751
(
(0.00167015 3.82098e-08 -1.00983e-07)
(0.00166744 1.1267e-07 -4.63594e-08)
(0.00166264 1.51266e-07 7.37703e-09)
(0.00165578 2.49612e-07 6.51482e-08)
(0.00164698 2.52136e-07 1.08255e-07)
(0.00163629 3.64951e-07 1.42923e-07)
(0.00162377 3.73853e-07 1.73661e-07)
(0.00160956 4.53528e-07 1.98517e-07)
(0.00159378 4.83462e-07 2.10416e-07)
(0.00157654 5.25605e-07 2.22652e-07)
(0.00155799 5.79996e-07 2.69353e-07)
(0.00153831 5.7592e-07 3.30364e-07)
(0.00151768 6.55487e-07 3.98019e-07)
(0.00149634 6.01009e-07 4.68579e-07)
(0.00147451 6.84472e-07 5.35697e-07)
(0.00145249 6.32854e-07 5.89995e-07)
(0.00143039 6.70651e-07 6.26226e-07)
(0.00140832 6.51201e-07 6.36261e-07)
(0.00138632 6.47909e-07 6.44763e-07)
(0.00136457 6.55783e-07 6.90377e-07)
(0.00134323 6.0651e-07 7.52595e-07)
(0.0013224 6.42279e-07 8.15992e-07)
(0.00130212 5.59563e-07 8.60969e-07)
(0.00128243 6.05237e-07 8.8798e-07)
(0.00126334 5.42063e-07 8.97033e-07)
(0.00124488 5.49761e-07 8.78231e-07)
(0.00122714 5.16833e-07 8.83342e-07)
(0.00120998 4.99301e-07 9.0328e-07)
(0.0011935 4.91595e-07 9.41393e-07)
(0.00117759 4.54036e-07 9.56686e-07)
(0.00116226 4.65649e-07 8.68498e-07)
(0.00114752 4.11693e-07 7.24358e-07)
(0.00113343 4.2569e-07 6.09826e-07)
(0.00111976 3.96579e-07 5.81718e-07)
(0.00110641 3.97444e-07 5.89618e-07)
(0.00109357 3.71022e-07 5.54357e-07)
(0.00108157 3.4462e-07 4.58316e-07)
(0.00107045 3.2351e-07 3.29272e-07)
(0.00106006 2.96092e-07 2.14095e-07)
(0.00105058 2.72891e-07 1.9907e-07)
(0.00104172 2.61852e-07 1.90431e-07)
(0.00103323 2.43384e-07 1.66862e-07)
(0.00102536 2.2869e-07 1.28317e-07)
(0.00101828 1.99639e-07 1.0623e-07)
(0.00101189 1.82826e-07 1.31625e-07)
(0.00100638 1.49915e-07 1.63251e-07)
(0.00100208 1.07876e-07 1.40138e-07)
(0.000998825 9.41861e-08 9.56879e-08)
(0.000996504 4.33924e-08 6.81299e-08)
(0.000995163 4.624e-08 9.95608e-08)
(0.000994978 -2.66599e-08 1.13261e-07)
(0.000995981 -2.94039e-08 1.51793e-07)
(0.000998079 -8.34782e-08 2.15951e-07)
(0.00100129 -1.0536e-07 2.64846e-07)
(0.00100554 -1.3515e-07 2.75693e-07)
(0.00101091 -1.849e-07 2.48671e-07)
(0.00101766 -2.00937e-07 2.46067e-07)
(0.00102576 -2.81048e-07 1.96483e-07)
(0.00103514 -2.58918e-07 1.74146e-07)
(0.00104557 -3.46208e-07 9.82468e-08)
(0.00105696 -3.29491e-07 8.85664e-09)
(0.0010694 -3.96368e-07 -8.3758e-08)
(0.00108306 -4.14959e-07 -2.07293e-07)
(0.00109777 -4.43275e-07 -3.4332e-07)
(0.00111347 -4.90729e-07 -4.669e-07)
(0.00113015 -4.84229e-07 -5.73437e-07)
(0.00114766 -5.57014e-07 -6.43455e-07)
(0.0011659 -5.11982e-07 -6.82269e-07)
(0.00118474 -5.9181e-07 -7.13059e-07)
(0.00120406 -5.59043e-07 -7.35673e-07)
(0.00122394 -6.07675e-07 -7.67476e-07)
(0.00124428 -6.03816e-07 -8.00718e-07)
(0.00126498 -6.12295e-07 -8.34029e-07)
(0.00128589 -6.3379e-07 -8.80282e-07)
(0.00130703 -6.10769e-07 -9.1467e-07)
(0.00132827 -6.54664e-07 -9.30043e-07)
(0.00134953 -6.00649e-07 -9.29291e-07)
(0.00137075 -6.50652e-07 -9.08243e-07)
(0.00139179 -6.06059e-07 -8.78173e-07)
(0.00141257 -6.22338e-07 -8.45554e-07)
(0.00143308 -6.03702e-07 -8.20503e-07)
(0.00145327 -5.91828e-07 -7.97416e-07)
(0.00147299 -5.88627e-07 -7.80904e-07)
(0.00149232 -5.59611e-07 -7.50359e-07)
(0.00151118 -5.67736e-07 -7.24984e-07)
(0.00152948 -5.23586e-07 -7.11452e-07)
(0.00154713 -5.27457e-07 -7.0372e-07)
(0.00156411 -4.92348e-07 -6.91592e-07)
(0.00158031 -4.75231e-07 -6.69061e-07)
(0.00159556 -4.42168e-07 -6.33879e-07)
(0.00160972 -4.09068e-07 -5.78086e-07)
(0.00162269 -3.72832e-07 -5.23189e-07)
(0.0016344 -3.36969e-07 -4.74418e-07)
(0.00164471 -2.85753e-07 -4.34014e-07)
(0.00165347 -2.52737e-07 -3.83328e-07)
(0.00166056 -1.83502e-07 -3.26507e-07)
(0.00166588 -1.45683e-07 -2.70749e-07)
(0.00166929 -7.4606e-08 -2.11045e-07)
(0.00167074 -2.29826e-08 -1.54245e-07)
(0.0050856 1.1664e-07 -3.07557e-07)
(0.00507737 3.4339e-07 -1.41123e-07)
(0.00507105 4.60999e-07 2.25599e-08)
(0.00505841 7.62741e-07 1.99049e-07)
(0.00503151 7.70215e-07 3.30725e-07)
(0.00500703 1.11628e-06 4.37381e-07)
(0.00497684 1.14668e-06 5.32313e-07)
(0.00494132 1.39163e-06 6.09473e-07)
(0.00490085 1.48706e-06 6.47035e-07)
(0.00485572 1.61791e-06 6.85808e-07)
(0.00480636 1.79041e-06 8.31081e-07)
(0.00475331 1.77816e-06 1.02099e-06)
(0.00469717 2.03009e-06 1.23201e-06)
(0.00463863 1.86365e-06 1.45267e-06)
(0.00457829 2.12375e-06 1.66349e-06)
(0.00451717 1.96973e-06 1.83501e-06)
(0.00444845 2.08419e-06 1.9476e-06)
(0.00438646 2.03521e-06 1.98208e-06)
(0.00432432 2.03349e-06 2.01204e-06)
(0.00426278 2.07299e-06 2.15785e-06)
(0.00420235 1.92806e-06 2.35582e-06)
(0.00413729 2.04069e-06 2.55374e-06)
(0.00407989 1.79099e-06 2.69907e-06)
(0.00402432 1.93894e-06 2.78835e-06)
(0.00396451 1.74195e-06 2.8178e-06)
(0.00391262 1.77273e-06 2.76439e-06)
(0.00386277 1.68117e-06 2.78518e-06)
(0.00380894 1.62015e-06 2.84823e-06)
(0.00376287 1.60565e-06 2.97186e-06)
(0.00371291 1.48217e-06 3.01862e-06)
(0.00367033 1.52723e-06 2.74661e-06)
(0.00362395 1.35519e-06 2.29143e-06)
(0.00357967 1.39339e-06 1.93015e-06)
(0.00354204 1.30832e-06 1.84174e-06)
(0.0035001 1.30875e-06 1.86409e-06)
(0.00345966 1.22257e-06 1.7503e-06)
(0.00342728 1.14219e-06 1.45014e-06)
(0.00339219 1.07131e-06 1.04269e-06)
(0.00335951 9.81649e-07 6.81918e-07)
(0.00332969 9.04959e-07 6.36083e-07)
(0.00330694 8.71043e-07 6.09958e-07)
(0.00328022 8.11223e-07 5.32943e-07)
(0.0032554 7.60157e-07 4.10621e-07)
(0.00323312 6.63016e-07 3.42802e-07)
(0.00321308 6.06006e-07 4.22027e-07)
(0.00319576 4.99512e-07 5.20846e-07)
(0.00318226 3.58167e-07 4.47437e-07)
(0.00317204 3.1178e-07 3.05875e-07)
(0.0031648 1.46347e-07 2.1637e-07)
(0.00316067 1.44207e-07 3.13201e-07)
(0.0031602 -9.17575e-08 3.54905e-07)
(0.00316347 -1.03377e-07 4.78559e-07)
(0.0031702 -2.84156e-07 6.8197e-07)
(0.00318041 -3.58544e-07 8.34724e-07)
(0.00319401 -4.59797e-07 8.68478e-07)
(0.00321109 -6.17363e-07 7.84335e-07)
(0.00323252 -6.8273e-07 7.75851e-07)
(0.00325815 -9.38985e-07 6.19478e-07)
(0.00328796 -8.79595e-07 5.47789e-07)
(0.00331568 -1.14593e-06 3.0769e-07)
(0.0033518 -1.10028e-06 2.49699e-08)
(0.00339116 -1.32224e-06 -2.66995e-07)
(0.00343436 -1.3801e-06 -6.5656e-07)
(0.00347531 -1.47248e-06 -1.08419e-06)
(0.00352486 -1.61933e-06 -1.47554e-06)
(0.00357751 -1.61062e-06 -1.81339e-06)
(0.00362698 -1.82511e-06 -2.03337e-06)
(0.00368446 -1.69441e-06 -2.1576e-06)
(0.0037438 -1.94038e-06 -2.25512e-06)
(0.0037988 -1.83018e-06 -2.3232e-06)
(0.00386131 -1.98888e-06 -2.42299e-06)
(0.00391905 -1.96615e-06 -2.52348e-06)
(0.00398405 -1.99047e-06 -2.62761e-06)
(0.00404349 -2.04557e-06 -2.76806e-06)
(0.0041034 -1.9674e-06 -2.87177e-06)
(0.00416987 -2.10238e-06 -2.91995e-06)
(0.00422993 -1.92281e-06 -2.91305e-06)
(0.00428968 -2.06614e-06 -2.84282e-06)
(0.00435544 -1.92673e-06 -2.74867e-06)
(0.00441357 -1.96604e-06 -2.64255e-06)
(0.00447071 -1.89591e-06 -2.56027e-06)
(0.00452667 -1.84918e-06 -2.48414e-06)
(0.00458095 -1.82988e-06 -2.42866e-06)
(0.00463362 -1.73832e-06 -2.32996e-06)
(0.0046846 -1.75941e-06 -2.2475e-06)
(0.00473368 -1.62106e-06 -2.20197e-06)
(0.00478834 -1.63289e-06 -2.17803e-06)
(0.00483306 -1.52111e-06 -2.13707e-06)
(0.00487521 -1.46635e-06 -2.06412e-06)
(0.00491428 -1.36182e-06 -1.95245e-06)
(0.00494986 -1.25799e-06 -1.77773e-06)
(0.00498165 -1.14469e-06 -1.60628e-06)
(0.00500942 -1.03279e-06 -1.45415e-06)
(0.0050328 -8.74577e-07 -1.32813e-06)
(0.00505134 -7.72046e-07 -1.17112e-06)
(0.00506471 -5.59585e-07 -9.9589e-07)
(0.00507259 -4.43733e-07 -8.24459e-07)
(0.00508299 -2.27126e-07 -6.42649e-07)
(0.0050874 -6.99962e-08 -4.69679e-07)
(0.00831317 7.69871e-07 -4.29333e-07)
(0.00830061 1.34967e-06 -1.79013e-07)
(0.00829442 2.01329e-06 7.17932e-08)
(0.00827003 2.65929e-06 3.77911e-07)
(0.00824495 3.28188e-06 6.20499e-07)
(0.00821075 3.89137e-06 8.2667e-07)
(0.00816826 4.43944e-06 1.02221e-06)
(0.00812525 5.03404e-06 1.17057e-06)
(0.00806779 5.45724e-06 1.23077e-06)
(0.00801266 5.91852e-06 1.30822e-06)
(0.00794964 6.41989e-06 1.54325e-06)
(0.00787289 6.82177e-06 1.8713e-06)
(0.0078008 7.02756e-06 2.20508e-06)
(0.00772502 7.31048e-06 2.56771e-06)
(0.00764023 7.39351e-06 2.89499e-06)
(0.00755894 7.5003e-06 3.18186e-06)
(0.0074733 7.48569e-06 3.41435e-06)
(0.00739045 7.52215e-06 3.54375e-06)
(0.00730514 7.50393e-06 3.62914e-06)
(0.00721916 7.47415e-06 3.84416e-06)
(0.00713355 7.3728e-06 4.14872e-06)
(0.00705287 7.15673e-06 4.45634e-06)
(0.00696719 6.98811e-06 4.73466e-06)
(0.00689101 6.75096e-06 4.9225e-06)
(0.00681015 6.58753e-06 5.06895e-06)
(0.00673994 6.3375e-06 5.06159e-06)
(0.0066658 6.20069e-06 5.09773e-06)
(0.00659455 5.94385e-06 5.23434e-06)
(0.00652653 5.74942e-06 5.36349e-06)
(0.00646152 5.54742e-06 5.37519e-06)
(0.00639931 5.34047e-06 4.96667e-06)
(0.00633439 5.14986e-06 4.20925e-06)
(0.00627809 4.9259e-06 3.59744e-06)
(0.00621757 4.83766e-06 3.32026e-06)
(0.00616016 4.67858e-06 3.22479e-06)
(0.00610404 4.44079e-06 2.94062e-06)
(0.00605829 4.13875e-06 2.4649e-06)
(0.00601013 3.84775e-06 1.82298e-06)
(0.00596108 3.56401e-06 1.35594e-06)
(0.00592176 3.27142e-06 1.36243e-06)
(0.00588544 3.09122e-06 1.29646e-06)
(0.00585169 2.94207e-06 1.0754e-06)
(0.00581529 2.66802e-06 8.62816e-07)
(0.00578814 2.37486e-06 8.23013e-07)
(0.0057603 2.09602e-06 9.13228e-07)
(0.00573638 1.74107e-06 1.02918e-06)
(0.0057228 1.29842e-06 8.89329e-07)
(0.00570968 9.32182e-07 6.11616e-07)
(0.00570182 6.00376e-07 3.89412e-07)
(0.00569926 1.56642e-07 4.47694e-07)
(0.00570241 -2.45589e-07 4.51326e-07)
(0.00571143 -6.75298e-07 6.94742e-07)
(0.00572631 -1.10414e-06 1.07144e-06)
(0.00574155 -1.52084e-06 1.25351e-06)
(0.0057681 -1.92468e-06 1.2885e-06)
(0.00580017 -2.31569e-06 1.2009e-06)
(0.00583386 -2.93409e-06 1.17627e-06)
(0.00587878 -3.32836e-06 9.28065e-07)
(0.00592534 -3.8037e-06 7.79014e-07)
(0.00597687 -4.08129e-06 3.90434e-07)
(0.00603427 -4.49026e-06 -7.11672e-08)
(0.00610176 -4.92762e-06 -5.27641e-07)
(0.00616943 -5.29853e-06 -1.13469e-06)
(0.00624225 -5.71374e-06 -1.81244e-06)
(0.00631423 -5.97715e-06 -2.52447e-06)
(0.00639625 -6.4008e-06 -3.15977e-06)
(0.00648162 -6.55174e-06 -3.62724e-06)
(0.00656405 -6.84488e-06 -3.92033e-06)
(0.00665503 -6.94652e-06 -4.10122e-06)
(0.00674373 -7.15233e-06 -4.2419e-06)
(0.00683352 -7.32393e-06 -4.38072e-06)
(0.00692355 -7.46519e-06 -4.55348e-06)
(0.00701613 -7.46528e-06 -4.68182e-06)
(0.00711077 -7.48887e-06 -4.86922e-06)
(0.00719774 -7.61831e-06 -5.055e-06)
(0.00728926 -7.53014e-06 -5.12126e-06)
(0.00737503 -7.50563e-06 -5.10329e-06)
(0.00746555 -7.38175e-06 -5.00362e-06)
(0.00754766 -7.34054e-06 -4.82028e-06)
(0.00762822 -7.10744e-06 -4.66166e-06)
(0.00770669 -7.04324e-06 -4.55626e-06)
(0.00777567 -6.79193e-06 -4.45619e-06)
(0.00784866 -6.63964e-06 -4.33035e-06)
(0.00791296 -6.44948e-06 -4.1712e-06)
(0.00797903 -6.18182e-06 -4.01332e-06)
(0.00803434 -5.95198e-06 -3.89779e-06)
(0.0080934 -5.68099e-06 -3.80742e-06)
(0.00814106 -5.38845e-06 -3.70141e-06)
(0.00818403 -5.06353e-06 -3.56156e-06)
(0.0082205 -4.69581e-06 -3.34881e-06)
(0.0082522 -4.27e-06 -3.03443e-06)
(0.00828499 -3.83934e-06 -2.70031e-06)
(0.00830357 -3.37763e-06 -2.40185e-06)
(0.00831494 -2.86754e-06 -2.15313e-06)
(0.0083261 -2.32906e-06 -1.88214e-06)
(0.00832906 -1.78787e-06 -1.5719e-06)
(0.00833122 -1.18393e-06 -1.27546e-06)
(0.00833198 -5.40052e-07 -9.81747e-07)
(0.00832353 4.73193e-08 -6.95013e-07)
(0.0113922 1.88903e-06 -4.19291e-07)
(0.0113689 3.1873e-06 -8.87367e-08)
(0.0113535 4.42151e-06 2.45169e-07)
(0.0113267 5.59988e-06 6.61615e-07)
(0.0112939 6.81063e-06 1.04221e-06)
(0.0112509 7.9306e-06 1.37127e-06)
(0.0112098 9.03587e-06 1.69296e-06)
(0.0111531 1.00976e-05 1.94085e-06)
(0.0110912 1.11388e-05 2.05171e-06)
(0.0110177 1.19391e-05 2.18714e-06)
(0.0109446 1.27395e-05 2.49942e-06)
(0.0108619 1.34986e-05 2.92982e-06)
(0.0107762 1.4089e-05 3.35123e-06)
(0.0106855 1.45881e-05 3.79139e-06)
(0.0105916 1.4884e-05 4.1795e-06)
(0.0104921 1.50279e-05 4.55146e-06)
(0.0103916 1.51829e-05 4.92207e-06)
(0.0102893 1.51776e-05 5.20457e-06)
(0.0101919 1.51298e-05 5.42494e-06)
(0.0100928 1.49643e-05 5.74864e-06)
(0.00999359 1.46815e-05 6.0989e-06)
(0.00989578 1.43743e-05 6.49376e-06)
(0.00980219 1.40096e-05 6.92387e-06)
(0.0097123 1.36745e-05 7.28554e-06)
(0.00962006 1.32791e-05 7.64375e-06)
(0.00953229 1.28112e-05 7.80578e-06)
(0.00944878 1.24251e-05 7.93736e-06)
(0.00936444 1.19476e-05 8.15468e-06)
(0.00929034 1.15217e-05 8.22996e-06)
(0.00921455 1.11358e-05 8.13546e-06)
(0.00913753 1.07137e-05 7.65871e-06)
(0.00906979 1.03037e-05 6.80386e-06)
(0.00900061 9.94001e-06 5.99962e-06)
(0.00893477 9.65262e-06 5.43137e-06)
(0.00887217 9.35358e-06 4.97193e-06)
(0.00880851 8.8494e-06 4.36974e-06)
(0.00875377 8.22279e-06 3.59766e-06)
(0.00870013 7.66081e-06 2.8117e-06)
(0.00865108 7.0795e-06 2.328e-06)
(0.00860229 6.46492e-06 2.35896e-06)
(0.00856347 6.04283e-06 2.26487e-06)
(0.00852383 5.68273e-06 1.98861e-06)
(0.00848836 5.15449e-06 1.8092e-06)
(0.00845807 4.51225e-06 1.86035e-06)
(0.00843383 3.88577e-06 1.86096e-06)
(0.00841509 3.18982e-06 1.83105e-06)
(0.00840267 2.29017e-06 1.47852e-06)
(0.00839264 1.51978e-06 1.01118e-06)
(0.00839023 7.32095e-07 5.58863e-07)
(0.00839514 -1.0772e-07 3.50713e-07)
(0.00840734 -1.00262e-06 2.37564e-07)
(0.00842758 -1.88184e-06 5.36166e-07)
(0.0084555 -2.77071e-06 1.01039e-06)
(0.00848564 -3.59276e-06 1.19191e-06)
(0.00852389 -4.47336e-06 1.16057e-06)
(0.0085708 -5.45547e-06 1.02774e-06)
(0.00862504 -6.44846e-06 9.31881e-07)
(0.00868754 -7.46131e-06 7.90358e-07)
(0.00875811 -8.33298e-06 6.21818e-07)
(0.00883126 -9.09498e-06 1.6454e-07)
(0.00891598 -9.84283e-06 -4.04295e-07)
(0.0090007 -1.06804e-05 -9.54352e-07)
(0.00909325 -1.14136e-05 -1.67857e-06)
(0.00918829 -1.21513e-05 -2.59197e-06)
(0.00929306 -1.29187e-05 -3.63295e-06)
(0.00939717 -1.34331e-05 -4.59211e-06)
(0.00950482 -1.39636e-05 -5.38393e-06)
(0.00961743 -1.43838e-05 -5.96605e-06)
(0.00972759 -1.47233e-05 -6.29338e-06)
(0.00984466 -1.49682e-05 -6.51633e-06)
(0.00995828 -1.52911e-05 -6.67164e-06)
(0.0100681 -1.53906e-05 -6.87014e-06)
(0.0101862 -1.54894e-05 -6.99511e-06)
(0.010295 -1.55169e-05 -7.15373e-06)
(0.0104061 -1.54841e-05 -7.36323e-06)
(0.0105144 -1.54156e-05 -7.44774e-06)
(0.0106147 -1.52252e-05 -7.41561e-06)
(0.0107129 -1.49886e-05 -7.28313e-06)
(0.0108081 -1.46478e-05 -7.04472e-06)
(0.0108999 -1.43487e-05 -6.8742e-06)
(0.0109836 -1.39603e-05 -6.78072e-06)
(0.0110621 -1.34758e-05 -6.67031e-06)
(0.0111361 -1.30662e-05 -6.48678e-06)
(0.0111982 -1.25865e-05 -6.26159e-06)
(0.0112628 -1.20505e-05 -5.99883e-06)
(0.0113157 -1.14834e-05 -5.76209e-06)
(0.0113627 -1.08715e-05 -5.5544e-06)
(0.0114039 -1.02351e-05 -5.32056e-06)
(0.0114379 -9.53693e-06 -5.05929e-06)
(0.0114654 -8.7068e-06 -4.6757e-06)
(0.0114844 -7.83868e-06 -4.19567e-06)
(0.0114949 -6.9445e-06 -3.68643e-06)
(0.0114966 -6.02725e-06 -3.22842e-06)
(0.0114952 -5.01204e-06 -2.82191e-06)
(0.0114839 -3.95251e-06 -2.42794e-06)
(0.0114685 -2.87425e-06 -1.99749e-06)
(0.0114492 -1.74448e-06 -1.59715e-06)
(0.0114377 -5.64473e-07 -1.19937e-06)
(0.011421 6.10221e-07 -7.95514e-07)
(0.0142411 3.8463e-06 -2.26874e-07)
(0.014203 5.86976e-06 1.71438e-07)
(0.0141758 7.8234e-06 5.74158e-07)
(0.0141394 9.81472e-06 1.09631e-06)
(0.0140907 1.16295e-05 1.61802e-06)
(0.0140391 1.35161e-05 2.09611e-06)
(0.0139818 1.52247e-05 2.55386e-06)
(0.0139175 1.69399e-05 2.929e-06)
(0.0138407 1.84493e-05 3.11319e-06)
(0.0137594 1.98298e-05 3.33636e-06)
(0.0136707 2.12015e-05 3.73001e-06)
(0.0135797 2.22961e-05 4.21317e-06)
(0.0134789 2.329e-05 4.68274e-06)
(0.013375 2.40186e-05 5.10797e-06)
(0.0132688 2.45559e-05 5.47294e-06)
(0.013157 2.48323e-05 5.88681e-06)
(0.0130489 2.49927e-05 6.37012e-06)
(0.01294 2.49814e-05 6.78945e-06)
(0.0128267 2.48461e-05 7.21983e-06)
(0.0127179 2.45909e-05 7.67659e-06)
(0.0126111 2.41423e-05 8.10374e-06)
(0.0125049 2.36225e-05 8.58376e-06)
(0.0124031 2.3044e-05 9.14071e-06)
(0.012306 2.2454e-05 9.72387e-06)
(0.01221 2.18407e-05 1.0327e-05)
(0.0121142 2.10929e-05 1.07581e-05)
(0.0120244 2.0309e-05 1.10765e-05)
(0.0119406 1.96259e-05 1.13481e-05)
(0.0118571 1.88153e-05 1.13206e-05)
(0.0117796 1.81552e-05 1.11359e-05)
(0.011703 1.74248e-05 1.07019e-05)
(0.0116314 1.67521e-05 9.96839e-06)
(0.0115646 1.61105e-05 9.16735e-06)
(0.0114986 1.55852e-05 8.34158e-06)
(0.0114333 1.49397e-05 7.42315e-06)
(0.0113772 1.41335e-05 6.41537e-06)
(0.0113223 1.3167e-05 5.24634e-06)
(0.0112691 1.21986e-05 4.28172e-06)
(0.0112262 1.12082e-05 3.80083e-06)
(0.011181 1.0202e-05 3.74173e-06)
(0.0111462 9.38528e-06 3.6573e-06)
(0.011113 8.70785e-06 3.54117e-06)
(0.0110856 7.76305e-06 3.47745e-06)
(0.0110648 6.66163e-06 3.55802e-06)
(0.0110512 5.57221e-06 3.40827e-06)
(0.0110405 4.3965e-06 3.0063e-06)
(0.0110369 2.99111e-06 2.31315e-06)
(0.0110371 1.59446e-06 1.58006e-06)
(0.0110515 1.86075e-07 7.97935e-07)
(0.01107 -1.26012e-06 1.16573e-07)
(0.0110977 -2.75574e-06 -2.73968e-07)
(0.0111296 -4.25702e-06 -4.3199e-08)
(0.0111752 -5.74383e-06 3.55801e-07)
(0.0112267 -7.25785e-06 4.68514e-07)
(0.0112864 -8.74115e-06 2.87972e-07)
(0.0113498 -1.02847e-05 9.8387e-09)
(0.0114232 -1.19844e-05 -1.69472e-07)
(0.011506 -1.36041e-05 -2.14844e-08)
(0.0115979 -1.51356e-05 -4.3302e-08)
(0.011698 -1.64169e-05 -4.33495e-07)
(0.0118002 -1.76502e-05 -1.00976e-06)
(0.0119064 -1.89504e-05 -1.6158e-06)
(0.0120218 -2.02278e-05 -2.39887e-06)
(0.0121405 -2.13573e-05 -3.5045e-06)
(0.0122651 -2.24616e-05 -4.82484e-06)
(0.0123898 -2.33589e-05 -6.05672e-06)
(0.0125194 -2.41333e-05 -7.18702e-06)
(0.0126469 -2.47964e-05 -8.08687e-06)
(0.0127776 -2.52803e-05 -8.63699e-06)
(0.0129101 -2.56761e-05 -8.96681e-06)
(0.0130398 -2.5971e-05 -9.15673e-06)
(0.0131694 -2.61449e-05 -9.34238e-06)
(0.0132939 -2.62298e-05 -9.43883e-06)
(0.0134162 -2.61424e-05 -9.53115e-06)
(0.0135381 -2.59441e-05 -9.64435e-06)
(0.0136525 -2.56614e-05 -9.69034e-06)
(0.0137587 -2.5229e-05 -9.64472e-06)
(0.0138612 -2.47123e-05 -9.50777e-06)
(0.0139593 -2.40904e-05 -9.28071e-06)
(0.0140482 -2.34039e-05 -9.12433e-06)
(0.0141319 -2.26407e-05 -9.03878e-06)
(0.0142046 -2.1862e-05 -8.91063e-06)
(0.0142728 -2.09881e-05 -8.68496e-06)
(0.0143291 -2.0097e-05 -8.37378e-06)
(0.0143843 -1.91405e-05 -8.00098e-06)
(0.0144274 -1.81051e-05 -7.61473e-06)
(0.0144634 -1.70293e-05 -7.23285e-06)
(0.0144864 -1.5872e-05 -6.81701e-06)
(0.0145069 -1.46631e-05 -6.37249e-06)
(0.0145133 -1.33039e-05 -5.8017e-06)
(0.0145156 -1.18595e-05 -5.14298e-06)
(0.0145078 -1.03593e-05 -4.4765e-06)
(0.0144891 -8.77324e-06 -3.83588e-06)
(0.0144599 -7.14437e-06 -3.27189e-06)
(0.0144291 -5.43743e-06 -2.74933e-06)
(0.0143918 -3.68985e-06 -2.23439e-06)
(0.0143519 -1.87856e-06 -1.74263e-06)
(0.0143149 5.13068e-09 -1.24512e-06)
(0.0142852 1.89395e-06 -7.17673e-07)
(0.0166788 7.11404e-06 1.70937e-07)
(0.0166252 9.95434e-06 6.62057e-07)
(0.0165967 1.27996e-05 1.1416e-06)
(0.0165586 1.55048e-05 1.72789e-06)
(0.0165122 1.81781e-05 2.35517e-06)
(0.0164586 2.06929e-05 2.97035e-06)
(0.0163821 2.32175e-05 3.5469e-06)
(0.0163023 2.55687e-05 4.03703e-06)
(0.0162097 2.77464e-05 4.37038e-06)
(0.0161125 2.97495e-05 4.72643e-06)
(0.0160124 3.15865e-05 5.19223e-06)
(0.0159033 3.31806e-05 5.66291e-06)
(0.0157937 3.44703e-05 6.1329e-06)
(0.0156812 3.55662e-05 6.47538e-06)
(0.0155637 3.62337e-05 6.75551e-06)
(0.0154429 3.66539e-05 7.13163e-06)
(0.0153241 3.67645e-05 7.62172e-06)
(0.0152071 3.6676e-05 8.13701e-06)
(0.0150904 3.64246e-05 8.72296e-06)
(0.014974 3.6021e-05 9.37102e-06)
(0.0148621 3.53582e-05 9.9605e-06)
(0.0147521 3.45723e-05 1.05771e-05)
(0.0146479 3.36945e-05 1.12165e-05)
(0.0145462 3.27753e-05 1.19243e-05)
(0.0144504 3.1796e-05 1.27118e-05)
(0.0143581 3.07147e-05 1.33635e-05)
(0.0142691 2.9528e-05 1.39149e-05)
(0.0141835 2.8381e-05 1.42115e-05)
(0.0141043 2.72376e-05 1.41354e-05)
(0.0140282 2.61203e-05 1.39584e-05)
(0.0139552 2.50226e-05 1.36567e-05)
(0.0138886 2.39304e-05 1.31975e-05)
(0.0138251 2.29204e-05 1.26061e-05)
(0.0137678 2.19547e-05 1.17106e-05)
(0.0137131 2.09608e-05 1.05529e-05)
(0.0136616 1.97123e-05 9.22952e-06)
(0.0136168 1.82687e-05 7.6714e-06)
(0.0135781 1.68403e-05 6.59309e-06)
(0.0135428 1.53576e-05 6.08433e-06)
(0.0135111 1.38496e-05 5.78823e-06)
(0.0134866 1.25246e-05 5.73334e-06)
(0.0134662 1.13335e-05 5.87234e-06)
(0.0134523 9.91582e-06 5.81907e-06)
(0.0134468 8.19291e-06 5.70959e-06)
(0.0134461 6.50252e-06 5.33588e-06)
(0.0134541 4.74115e-06 4.51705e-06)
(0.0134661 2.65882e-06 3.48406e-06)
(0.0134873 5.18597e-07 2.40234e-06)
(0.0135184 -1.66539e-06 1.24913e-06)
(0.0135556 -3.80889e-06 4.04555e-08)
(0.0136028 -6.08747e-06 -7.55327e-07)
(0.013656 -8.28577e-06 -7.94075e-07)
(0.0137191 -1.06036e-05 -7.02475e-07)
(0.0137921 -1.28058e-05 -8.08312e-07)
(0.0138718 -1.50215e-05 -1.20476e-06)
(0.0139606 -1.73793e-05 -1.65675e-06)
(0.0140548 -1.97853e-05 -1.76436e-06)
(0.0141582 -2.21699e-05 -1.35026e-06)
(0.0142704 -2.43279e-05 -1.13565e-06)
(0.0143873 -2.62641e-05 -1.39623e-06)
(0.0145117 -2.79922e-05 -1.92436e-06)
(0.0146393 -2.98592e-05 -2.61209e-06)
(0.0147691 -3.15692e-05 -3.47383e-06)
(0.01491 -3.32499e-05 -4.73483e-06)
(0.0150463 -3.46553e-05 -6.17163e-06)
(0.0151882 -3.58814e-05 -7.46936e-06)
(0.0153326 -3.6947e-05 -8.74727e-06)
(0.0154726 -3.77937e-05 -9.8855e-06)
(0.0156187 -3.84483e-05 -1.06695e-05)
(0.0157578 -3.88212e-05 -1.11374e-05)
(0.0158964 -3.91147e-05 -1.14171e-05)
(0.0160304 -3.91884e-05 -1.15991e-05)
(0.0161634 -3.91576e-05 -1.16584e-05)
(0.0162905 -3.88624e-05 -1.16601e-05)
(0.0164098 -3.83738e-05 -1.16145e-05)
(0.0165254 -3.77765e-05 -1.15656e-05)
(0.0166284 -3.69978e-05 -1.1483e-05)
(0.0167267 -3.60581e-05 -1.13568e-05)
(0.0168198 -3.50086e-05 -1.11937e-05)
(0.0169031 -3.3873e-05 -1.1061e-05)
(0.0169762 -3.26511e-05 -1.09477e-05)
(0.017043 -3.13397e-05 -1.07599e-05)
(0.0170991 -2.9971e-05 -1.04802e-05)
(0.0171485 -2.85446e-05 -1.0092e-05)
(0.0171853 -2.69538e-05 -9.62524e-06)
(0.0172146 -2.53463e-05 -9.08844e-06)
(0.0172311 -2.36224e-05 -8.48118e-06)
(0.0172435 -2.18824e-05 -7.86369e-06)
(0.017242 -1.99657e-05 -7.20353e-06)
(0.0172315 -1.79535e-05 -6.42492e-06)
(0.0172103 -1.57819e-05 -5.61245e-06)
(0.0171824 -1.35564e-05 -4.85422e-06)
(0.0171431 -1.12497e-05 -4.10805e-06)
(0.0170882 -8.85117e-06 -3.41046e-06)
(0.0170172 -6.32969e-06 -2.77658e-06)
(0.0169385 -3.81104e-06 -2.21078e-06)
(0.0168666 -1.15635e-06 -1.668e-06)
(0.0168016 1.5351e-06 -1.08545e-06)
(0.0167427 4.29801e-06 -4.39802e-07)
(0.0186845 1.18753e-05 6.7036e-07)
(0.0186132 1.56808e-05 1.26279e-06)
(0.0185661 1.93876e-05 1.84673e-06)
(0.0185093 2.29982e-05 2.48687e-06)
(0.018442 2.64506e-05 3.15497e-06)
(0.0183768 2.98466e-05 3.8421e-06)
(0.0183078 3.30405e-05 4.47677e-06)
(0.0182316 3.61032e-05 5.04405e-06)
(0.0181466 3.8868e-05 5.57109e-06)
(0.0180504 4.13954e-05 6.11828e-06)
(0.0179336 4.37282e-05 6.6559e-06)
(0.0178156 4.56967e-05 7.10187e-06)
(0.0176949 4.74003e-05 7.49708e-06)
(0.0175729 4.8643e-05 7.77412e-06)
(0.0174459 4.95118e-05 7.99211e-06)
(0.0173225 4.99245e-05 8.29093e-06)
(0.0171991 5.00373e-05 8.66399e-06)
(0.0170769 4.98343e-05 9.1483e-06)
(0.0169565 4.93912e-05 9.8005e-06)
(0.0168384 4.8774e-05 1.05988e-05)
(0.0167258 4.78081e-05 1.14254e-05)
(0.0166167 4.66809e-05 1.22308e-05)
(0.0165118 4.5384e-05 1.28914e-05)
(0.0164138 4.40655e-05 1.35204e-05)
(0.0163179 4.26593e-05 1.42199e-05)
(0.0162298 4.10299e-05 1.4955e-05)
(0.0161465 3.94188e-05 1.56271e-05)
(0.016066 3.77752e-05 1.59528e-05)
(0.0159929 3.60934e-05 1.59412e-05)
(0.0159242 3.45259e-05 1.59015e-05)
(0.0158608 3.28801e-05 1.58198e-05)
(0.0158026 3.12592e-05 1.56786e-05)
(0.0157491 2.97212e-05 1.54162e-05)
(0.0157031 2.82666e-05 1.46316e-05)
(0.0156595 2.67003e-05 1.34825e-05)
(0.015623 2.49274e-05 1.213e-05)
(0.015591 2.29777e-05 1.06727e-05)
(0.0155659 2.10026e-05 9.75042e-06)
(0.0155433 1.89135e-05 9.28048e-06)
(0.0155288 1.67745e-05 8.73663e-06)
(0.0155216 1.48556e-05 8.65235e-06)
(0.0155171 1.30109e-05 8.79925e-06)
(0.0155246 1.09044e-05 8.4885e-06)
(0.0155348 8.47647e-06 7.94439e-06)
(0.0155544 6.06086e-06 7.22402e-06)
(0.0155824 3.61058e-06 6.2538e-06)
(0.0156138 8.10224e-07 5.01062e-06)
(0.0156581 -2.22745e-06 3.61375e-06)
(0.0157092 -5.21169e-06 2.05938e-06)
(0.0157677 -8.26622e-06 4.53498e-07)
(0.0158364 -1.13535e-05 -6.37649e-07)
(0.0159113 -1.44136e-05 -1.13901e-06)
(0.0159934 -1.7537e-05 -1.52806e-06)
(0.0160885 -2.06041e-05 -2.01945e-06)
(0.0161869 -2.36205e-05 -2.68329e-06)
(0.0162954 -2.67368e-05 -3.1457e-06)
(0.016413 -2.99817e-05 -3.06833e-06)
(0.0165329 -3.30574e-05 -2.57397e-06)
(0.016664 -3.59637e-05 -2.279e-06)
(0.0167961 -3.8488e-05 -2.54527e-06)
(0.0169354 -4.08502e-05 -3.10182e-06)
(0.0170809 -4.31703e-05 -3.96404e-06)
(0.0172251 -4.53785e-05 -4.97327e-06)
(0.017374 -4.74226e-05 -6.22245e-06)
(0.0175239 -4.91351e-05 -7.45557e-06)
(0.0176764 -5.06323e-05 -8.56974e-06)
(0.0178249 -5.18664e-05 -9.7767e-06)
(0.0179757 -5.28931e-05 -1.091e-05)
(0.0181237 -5.35108e-05 -1.17879e-05)
(0.018268 -5.38602e-05 -1.23816e-05)
(0.018408 -5.39793e-05 -1.28178e-05)
(0.0185423 -5.39054e-05 -1.30311e-05)
(0.0186742 -5.35711e-05 -1.30595e-05)
(0.0187959 -5.2895e-05 -1.30138e-05)
(0.0189136 -5.20795e-05 -1.28982e-05)
(0.0190194 -5.09798e-05 -1.27441e-05)
(0.01912 -4.97463e-05 -1.2581e-05)
(0.0192081 -4.82833e-05 -1.24387e-05)
(0.0192904 -4.66699e-05 -1.23148e-05)
(0.0193624 -4.49305e-05 -1.21891e-05)
(0.019425 -4.31411e-05 -1.20037e-05)
(0.0194768 -4.12128e-05 -1.17206e-05)
(0.0195212 -3.91971e-05 -1.13325e-05)
(0.0195543 -3.70193e-05 -1.08573e-05)
(0.0195756 -3.4779e-05 -1.03316e-05)
(0.0195879 -3.24002e-05 -9.64652e-06)
(0.0195915 -2.9994e-05 -8.82108e-06)
(0.0195822 -2.74564e-05 -8.00209e-06)
(0.0195634 -2.48213e-05 -7.19484e-06)
(0.019534 -2.20162e-05 -6.26896e-06)
(0.0194732 -1.9006e-05 -5.34947e-06)
(0.0193956 -1.58806e-05 -4.53987e-06)
(0.0193143 -1.26796e-05 -3.77028e-06)
(0.0192203 -9.37473e-06 -3.05659e-06)
(0.0191257 -6.01158e-06 -2.42743e-06)
(0.0190263 -2.60598e-06 -1.86889e-06)
(0.0189286 8.93283e-07 -1.32545e-06)
(0.0188458 4.45219e-06 -7.13391e-07)
(0.0187669 8.12007e-06 -1.84192e-08)
(0.0203682 1.80318e-05 1.22976e-06)
(0.0202777 2.26696e-05 1.87916e-06)
(0.0202108 2.73209e-05 2.55203e-06)
(0.0201349 3.18552e-05 3.24935e-06)
(0.0200497 3.61944e-05 3.93561e-06)
(0.0199665 4.0354e-05 4.6353e-06)
(0.0198804 4.44094e-05 5.26562e-06)
(0.019788 4.81477e-05 5.8365e-06)
(0.0196907 5.15468e-05 6.49093e-06)
(0.0195874 5.45962e-05 7.19841e-06)
(0.0194818 5.7294e-05 7.80223e-06)
(0.0193549 5.96779e-05 8.20823e-06)
(0.0192251 6.15269e-05 8.49815e-06)
(0.0190975 6.30192e-05 8.77777e-06)
(0.0189673 6.39404e-05 9.03305e-06)
(0.0188394 6.43727e-05 9.2839e-06)
(0.0187132 6.4343e-05 9.50748e-06)
(0.0185897 6.39093e-05 9.8923e-06)
(0.0184697 6.32237e-05 1.05338e-05)
(0.0183538 6.22818e-05 1.13626e-05)
(0.0182424 6.09975e-05 1.22904e-05)
(0.0181378 5.94546e-05 1.31592e-05)
(0.0180366 5.76901e-05 1.37471e-05)
(0.0179433 5.58593e-05 1.41103e-05)
(0.0178543 5.38867e-05 1.4462e-05)
(0.0177715 5.17029e-05 1.50153e-05)
(0.017693 4.94736e-05 1.55807e-05)
(0.0176232 4.7247e-05 1.58956e-05)
(0.0175576 4.5051e-05 1.60854e-05)
(0.0174981 4.28179e-05 1.62883e-05)
(0.0174455 4.05462e-05 1.64374e-05)
(0.0173996 3.82467e-05 1.65701e-05)
(0.0173579 3.61102e-05 1.66386e-05)
(0.0173247 3.39842e-05 1.61003e-05)
(0.0172955 3.17919e-05 1.52456e-05)
(0.0172748 2.9383e-05 1.42514e-05)
(0.0172575 2.6818e-05 1.34046e-05)
(0.0172447 2.41653e-05 1.30857e-05)
(0.0172381 2.13569e-05 1.28706e-05)
(0.0172362 1.85386e-05 1.23338e-05)
(0.0172425 1.58849e-05 1.2066e-05)
(0.017258 1.32181e-05 1.18072e-05)
(0.0172797 1.02917e-05 1.10398e-05)
(0.0173108 7.03744e-06 1.00689e-05)
(0.0173488 3.84103e-06 9.05375e-06)
(0.0173943 5.59617e-07 8.02823e-06)
(0.0174474 -3.10245e-06 6.66752e-06)
(0.0175106 -7.03431e-06 5.19328e-06)
(0.0175812 -1.09246e-05 3.31655e-06)
(0.0176601 -1.48698e-05 1.5669e-06)
(0.0177487 -1.88645e-05 5.02454e-07)
(0.0178441 -2.27364e-05 -3.89926e-07)
(0.0179473 -2.67808e-05 -1.22943e-06)
(0.0180602 -3.07052e-05 -2.09127e-06)
(0.0181805 -3.46191e-05 -3.0173e-06)
(0.0183079 -3.85434e-05 -3.41743e-06)
(0.0184414 -4.249e-05 -3.27883e-06)
(0.0185823 -4.62937e-05 -2.89288e-06)
(0.0187278 -4.97536e-05 -2.90443e-06)
(0.0188775 -5.29254e-05 -3.49859e-06)
(0.0190308 -5.57755e-05 -4.21118e-06)
(0.0191871 -5.85272e-05 -5.27792e-06)
(0.0193451 -6.11122e-05 -6.42526e-06)
(0.0195024 -6.3476e-05 -7.47837e-06)
(0.0196564 -6.53863e-05 -8.24376e-06)
(0.0198125 -6.70147e-05 -9.02881e-06)
(0.0199643 -6.83966e-05 -9.98379e-06)
(0.0201167 -6.93751e-05 -1.08623e-05)
(0.0202627 -6.993e-05 -1.15921e-05)
(0.0204046 -7.00353e-05 -1.22445e-05)
(0.0205412 -6.99335e-05 -1.2798e-05)
(0.0206716 -6.94747e-05 -1.30417e-05)
(0.020793 -6.87619e-05 -1.31257e-05)
(0.0209096 -6.76763e-05 -1.31299e-05)
(0.0210161 -6.62897e-05 -1.30694e-05)
(0.021114 -6.46179e-05 -1.28952e-05)
(0.0212029 -6.27511e-05 -1.2653e-05)
(0.0212798 -6.06496e-05 -1.24353e-05)
(0.0213502 -5.83736e-05 -1.22779e-05)
(0.0214085 -5.59597e-05 -1.2126e-05)
(0.021456 -5.34049e-05 -1.18102e-05)
(0.0214962 -5.07352e-05 -1.13924e-05)
(0.0215239 -4.79692e-05 -1.09044e-05)
(0.0215423 -4.50471e-05 -1.03579e-05)
(0.0215489 -4.1949e-05 -9.75035e-06)
(0.0215448 -3.88142e-05 -8.95112e-06)
(0.0215304 -3.554e-05 -8.00295e-06)
(0.0215039 -3.21969e-05 -7.06138e-06)
(0.0214655 -2.86853e-05 -6.15959e-06)
(0.0213919 -2.4956e-05 -5.18314e-06)
(0.0213109 -2.10684e-05 -4.30395e-06)
(0.0212153 -1.7055e-05 -3.5483e-06)