/*--------------------------------*- C++ -*----------------------------------*\
| =========                 |                                                 |
| \\      /  F ield         | OpenFOAM: The Open Source CFD Toolbox           |
|  \\    /   O peration     | Version:  2306                                  |
|   \\  /    A nd           | Website:  www.openfoam.com                      |
|    \\/     M anipulation  |                                                 |
\*---------------------------------------------------------------------------*/
// * * * * * * * * * * * * * * * * * * * * * * * * * * * * * * * * * * * * * //
FoamFile
{
    version         2;
    format          ascii;
    class           volVectorField;
    location        "6237.56999999385971";
    object          U;
}

dimensions      [ 0 1 -1 0 0 0 0 ];

internalField   nonuniform List<vector> 
14751
(
(0.00466283 4.72044e-07 0)
(0.0046385 2.32237e-07 -4.38595e-29)
(0.00462732 4.94005e-07 4.39988e-29)
(0.00460043 9.10928e-07 -3.96511e-25)
(0.0045686 9.55462e-07 0)
(0.00453617 1.19472e-06 0)
(0.00449888 1.31154e-06 -4.1752e-25)
(0.0044603 1.51257e-06 3.85463e-27)
(0.00441735 1.63014e-06 0)
(0.00437355 1.73615e-06 0)
(0.00432752 1.83495e-06 -2.21345e-26)
(0.00428103 1.88771e-06 -2.01895e-25)
(0.00423369 1.96664e-06 2.01569e-25)
(0.0041864 1.97092e-06 -4.63803e-25)
(0.00413927 2.02766e-06 4.62683e-25)
(0.00409246 1.97861e-06 0)
(0.00404739 2.00688e-06 5.38252e-25)
(0.00400244 1.95483e-06 -6.73378e-25)
(0.00395965 1.94311e-06 -2.88412e-25)
(0.00391741 1.88409e-06 2.87306e-25)
(0.00387769 1.82633e-06 0)
(0.00383954 1.77195e-06 3.0918e-25)
(0.0038033 1.70641e-06 4.50852e-26)
(0.00376905 1.63853e-06 -6.70176e-25)
(0.00373675 1.56727e-06 -4.42753e-26)
(0.0037065 1.49236e-06 2.79426e-25)
(0.00367824 1.41768e-06 4.04116e-26)
(0.00365198 1.33814e-06 -1.62536e-25)
(0.00362773 1.26176e-06 3.2405e-25)
(0.00360538 1.18301e-06 -3.23998e-25)
(0.00358496 1.10474e-06 -3.26684e-29)
(0.00356641 1.0266e-06 -1.60511e-25)
(0.0035497 9.49046e-07 -1.59347e-25)
(0.00353478 8.72592e-07 -7.89582e-26)
(0.00352156 7.96243e-07 1.55567e-25)
(0.00351008 7.20282e-07 -7.72325e-25)
(0.00350034 6.46165e-07 -7.56425e-26)
(0.00349214 5.74376e-07 7.54022e-26)
(0.0034855 5.03014e-07 0)
(0.00348029 4.34985e-07 0)
(0.00347651 3.64924e-07 2.83511e-25)
(0.00347417 2.9806e-07 2.77439e-25)
(0.00347319 2.3006e-07 -2.71046e-25)
(0.00347356 1.6561e-07 0)
(0.00347523 9.96135e-08 0)
(0.00347819 3.66052e-08 0)
(0.00348242 -2.84701e-08 -6.06772e-26)
(0.0034879 -8.93301e-08 5.87502e-26)
(0.00349457 -1.53436e-07 -5.32755e-26)
(0.0035025 -2.14435e-07 5.12374e-26)
(0.0035116 -2.76098e-07 -5.18164e-26)
(0.00352189 -3.36342e-07 4.96704e-26)
(0.00353332 -3.97692e-07 4.23827e-26)
(0.00354593 -4.58119e-07 5.89393e-27)
(0.00355973 -5.20276e-07 3.31005e-26)
(0.00357468 -5.78979e-07 5.92988e-28)
(0.0035908 -6.41279e-07 1.00577e-26)
(0.0036081 -7.00094e-07 0)
(0.00362655 -7.60623e-07 -3.41745e-26)
(0.00364616 -8.18317e-07 0)
(0.0036669 -8.78072e-07 5.83609e-26)
(0.00368881 -9.35399e-07 0)
(0.00371186 -9.94044e-07 0)
(0.00373605 -1.04915e-06 8.59892e-26)
(0.00376132 -1.10525e-06 -9.31658e-26)
(0.00378775 -1.15899e-06 4.75353e-26)
(0.0038152 -1.21238e-06 -8.47258e-26)
(0.0038438 -1.26433e-06 0)
(0.00387349 -1.3131e-06 1.43327e-26)
(0.00390416 -1.3605e-06 -1.43713e-26)
(0.0039358 -1.40455e-06 -4.12448e-27)
(0.00396838 -1.44785e-06 4.94777e-27)
(0.00400184 -1.48595e-06 0)
(0.00403611 -1.52315e-06 4.09385e-27)
(0.00407108 -1.5551e-06 0)
(0.00410678 -1.58878e-06 -3.93047e-26)
(0.00414302 -1.61018e-06 3.94316e-26)
(0.00417972 -1.63427e-06 0)
(0.00421669 -1.64838e-06 -7.85014e-26)
(0.00425405 -1.66794e-06 6.37372e-26)
(0.00429131 -1.66128e-06 0)
(0.00432847 -1.67436e-06 0)
(0.00436526 -1.65695e-06 1.06515e-26)
(0.00440182 -1.66673e-06 2.80574e-27)
(0.00443756 -1.61859e-06 0)
(0.00447236 -1.61215e-06 9.63674e-26)
(0.00450574 -1.52654e-06 -2.06049e-25)
(0.00453704 -1.51024e-06 9.7544e-26)
(0.00456721 -1.41466e-06 0)
(0.00459426 -1.34104e-06 2.31652e-26)
(0.00461913 -1.2225e-06 -2.32264e-26)
(0.00463982 -1.10166e-06 -4.30711e-26)
(0.00465797 -9.74615e-07 5.9499e-28)
(0.00467019 -7.85504e-07 3.55691e-26)
(0.0046803 -7.11186e-07 -7.32642e-27)
(0.00468364 -3.91786e-07 7.34176e-27)
(0.00468236 -4.11234e-07 2.15106e-26)
(0.00467751 -1.46975e-07 9.15725e-29)
(0.00467353 -2.2607e-07 -9.18319e-29)
(0.00680423 1.6145e-06 0)
(0.00677513 1.26323e-06 -6.17386e-25)
(0.00676412 1.57817e-06 -1.12746e-25)
(0.00672916 2.41244e-06 3.90679e-25)
(0.0066868 2.53149e-06 0)
(0.00664248 2.9137e-06 7.72818e-24)
(0.00659008 3.0999e-06 -3.46635e-25)
(0.00653421 3.42008e-06 2.1312e-24)
(0.00647077 3.61399e-06 -1.49388e-24)
(0.00640496 3.76246e-06 1.44095e-23)
(0.006335 3.89446e-06 4.20459e-24)
(0.00626344 3.9346e-06 -2.16882e-23)
(0.00618972 4.01521e-06 0)
(0.00611519 3.96762e-06 2.02973e-23)
(0.00604001 4.01088e-06 0)
(0.0059648 3.8695e-06 -5.82617e-24)
(0.00589139 3.85456e-06 5.80666e-24)
(0.00581775 3.71535e-06 1.85305e-23)
(0.00574681 3.63951e-06 6.28147e-24)
(0.00567653 3.49186e-06 -2.63447e-23)
(0.00560981 3.33278e-06 0)
(0.00554527 3.18582e-06 0)
(0.00548351 3.02197e-06 -2.73588e-26)
(0.00542467 2.85635e-06 2.77191e-26)
(0.00536878 2.68827e-06 2.79958e-26)
(0.00531599 2.51697e-06 2.88899e-23)
(0.00526627 2.34953e-06 -1.45228e-23)
(0.0052197 2.17685e-06 1.45219e-23)
(0.00517629 2.01242e-06 1.44032e-23)
(0.00513591 1.84817e-06 1.13151e-25)
(0.00509864 1.68753e-06 1.09257e-23)
(0.00506438 1.53031e-06 3.69531e-24)
(0.00503309 1.37692e-06 1.11e-25)
(0.00500471 1.22821e-06 1.80709e-24)
(0.00497913 1.08338e-06 -1.74413e-24)
(0.00495638 9.40288e-07 -1.32926e-23)
(0.00493644 8.02577e-07 -5.08071e-24)
(0.00491907 6.71214e-07 3.32706e-24)
(0.00490429 5.42231e-07 1.64533e-24)
(0.00489193 4.20961e-07 -7.94415e-25)
(0.004882 2.97987e-07 -4.90576e-24)
(0.00487446 1.813e-07 -9.6695e-25)
(0.00486924 6.38832e-08 -2.81053e-24)
(0.0048663 -4.67191e-08 -2.5618e-24)
(0.00486555 -1.58268e-07 -3.60015e-25)
(0.004867 -2.64333e-07 3.40523e-25)
(0.0048706 -3.72834e-07 -1.3308e-25)
(0.00487634 -4.73842e-07 -1.25472e-25)
(0.00488413 -5.7927e-07 -2.01528e-27)
(0.00489406 -6.79728e-07 -7.61498e-26)
(0.004906 -7.80631e-07 -2.53968e-25)
(0.00491999 -8.78672e-07 1.01377e-25)
(0.00493597 -9.78044e-07 -1.23436e-24)
(0.00495399 -1.07603e-06 -2.47519e-25)
(0.00497406 -1.17681e-06 2.17409e-25)
(0.00499615 -1.27203e-06 0)
(0.00502025 -1.37311e-06 0)
(0.00504642 -1.46933e-06 0)
(0.00507459 -1.56837e-06 3.86864e-25)
(0.00510477 -1.66318e-06 -3.63794e-25)
(0.00513694 -1.76151e-06 -2.61881e-24)
(0.00517115 -1.85676e-06 5.59897e-25)
(0.00520735 -1.95483e-06 -5.61039e-25)
(0.00524556 -2.04747e-06 3.74514e-24)
(0.00528568 -2.1425e-06 3.39888e-24)
(0.00532781 -2.23434e-06 -3.31473e-25)
(0.00537177 -2.32567e-06 9.63373e-26)
(0.0054177 -2.41675e-06 2.74728e-25)
(0.00546548 -2.50237e-06 -3.18506e-25)
(0.00551501 -2.58587e-06 3.19531e-25)
(0.00556623 -2.66428e-06 9.24691e-26)
(0.00561909 -2.74165e-06 -9.33492e-26)
(0.00567349 -2.81027e-06 2.91835e-25)
(0.0057293 -2.87626e-06 1.4438e-24)
(0.0057864 -2.93346e-06 -2.62216e-24)
(0.00584478 -2.99228e-06 -2.76282e-24)
(0.00590415 -3.02951e-06 0)
(0.00596437 -3.06724e-06 0)
(0.00602518 -3.08805e-06 -5.31647e-24)
(0.00608667 -3.11381e-06 0)
(0.00614814 -3.09222e-06 0)
(0.00620957 -3.09554e-06 -8.9645e-24)
(0.00627056 -3.04922e-06 1.8368e-24)
(0.00633121 -3.04069e-06 -8.00419e-24)
(0.00639066 -2.93414e-06 8.30509e-24)
(0.00644857 -2.88499e-06 6.39862e-24)
(0.00650421 -2.69632e-06 4.33139e-24)
(0.0065567 -2.61793e-06 -2.17456e-24)
(0.00660721 -2.40968e-06 -1.06401e-24)
(0.00665289 -2.22493e-06 -7.36086e-24)
(0.00669492 -1.95783e-06 9.85949e-25)
(0.00673057 -1.68223e-06 -8.63503e-24)
(0.00676198 -1.38019e-06 -7.13501e-24)
(0.0067848 -9.79103e-07 -2.5178e-26)
(0.0068041 -7.61439e-07 0)
(0.00681385 -1.0646e-07 6.68396e-26)
(0.00681737 -1.58053e-08 -1.99647e-24)
(0.00681655 4.16794e-07 3.18393e-29)
(0.00681607 2.83607e-07 2.98878e-27)
(0.0087021 2.89871e-06 0)
(0.00866801 2.49109e-06 5.5675e-25)
(0.00865697 3.16946e-06 -1.01672e-25)
(0.0086174 4.83253e-06 8.11538e-24)
(0.0085683 5.2408e-06 -3.02777e-27)
(0.00851657 6.06331e-06 -6.99494e-24)
(0.00845477 6.60131e-06 0)
(0.00838773 7.33209e-06 0)
(0.00831065 7.8458e-06 -4.64575e-23)
(0.00822984 8.24302e-06 -1.31284e-23)
(0.0081435 8.59688e-06 -5.83549e-23)
(0.00805462 8.78369e-06 -5.63041e-23)
(0.00796261 9.01355e-06 -5.20779e-23)
(0.00786892 9.02113e-06 5.6449e-23)
(0.00777391 9.14527e-06 5.82675e-25)
(0.00767836 8.94841e-06 5.43957e-25)
(0.00758457 8.9401e-06 -9.84703e-23)
(0.00749017 8.71794e-06 -3.45035e-23)
(0.0073987 8.57229e-06 -4.22634e-25)
(0.00730792 8.29467e-06 3.64238e-23)
(0.00722136 7.97555e-06 -1.26881e-23)
(0.00713747 7.67657e-06 1.26467e-23)
(0.00705693 7.33531e-06 0)
(0.00697998 6.98298e-06 6.6676e-24)
(0.00690666 6.61911e-06 -6.64264e-24)
(0.0068372 6.24341e-06 -2.70077e-23)
(0.0067716 5.86908e-06 1.35834e-23)
(0.00670998 5.48141e-06 4.08723e-23)
(0.00665238 5.1058e-06 -2.04722e-23)
(0.00659867 4.72854e-06 6.80294e-24)
(0.00654894 4.3558e-06 -1.35819e-23)
(0.00650309 3.98852e-06 -2.70174e-23)
(0.0064611 3.62746e-06 -3.34514e-24)
(0.00642289 3.27506e-06 6.64578e-24)
(0.00638833 2.92957e-06 -3.30111e-24)
(0.00635745 2.58871e-06 1.30001e-23)
(0.00633024 2.25746e-06 -1.923e-23)
(0.00630641 1.93814e-06 -3.15637e-23)
(0.00628601 1.62412e-06 0)
(0.00626885 1.32437e-06 0)
(0.00625492 1.02305e-06 4.49362e-24)
(0.0062442 7.33332e-07 -1.02134e-23)
(0.00623657 4.44499e-07 4.26654e-24)
(0.00623199 1.68265e-07 1.18277e-23)
(0.00623033 -1.07961e-07 1.74454e-26)
(0.00623164 -3.74816e-07 -4.60301e-24)
(0.00623585 -6.44349e-07 0)
(0.00624293 -9.00716e-07 0)
(0.0062528 -1.16413e-06 -7.34227e-26)
(0.00626553 -1.4188e-06 7.33556e-26)
(0.00628101 -1.67323e-06 5.48668e-25)
(0.00629924 -1.9233e-06 -2.71405e-25)
(0.00632019 -2.1752e-06 5.20211e-25)
(0.00634389 -2.42542e-06 -3.38244e-24)
(0.00637037 -2.67971e-06 0)
(0.00639957 -2.9247e-06 8.47057e-25)
(0.0064315 -3.17965e-06 -8.47452e-25)
(0.00646621 -3.42632e-06 0)
(0.00650361 -3.67689e-06 -5.75947e-24)
(0.00654373 -3.92063e-06 5.34156e-24)
(0.0065865 -4.16963e-06 2.45775e-24)
(0.00663199 -4.41349e-06 1.06743e-24)
(0.00668014 -4.66073e-06 -1.06903e-24)
(0.00673095 -4.89793e-06 -3.62051e-24)
(0.00678429 -5.13784e-06 -3.18268e-24)
(0.00684026 -5.37068e-06 4.86297e-24)
(0.00689863 -5.60064e-06 4.20491e-24)
(0.00695952 -5.82752e-06 1.04423e-24)
(0.00702278 -6.04201e-06 0)
(0.00708825 -6.24959e-06 -3.98859e-24)
(0.00715584 -6.44535e-06 1.76803e-25)
(0.00722545 -6.63482e-06 -1.77217e-25)
(0.00729694 -6.80487e-06 -2.75479e-25)
(0.00737012 -6.96513e-06 -9.26017e-25)
(0.00744481 -7.10632e-06 2.34488e-24)
(0.00752095 -7.24275e-06 2.28244e-24)
(0.00759819 -7.33563e-06 1.99087e-24)
(0.00767627 -7.42062e-06 -1.99535e-24)
(0.00775486 -7.47192e-06 1.49424e-23)
(0.00783401 -7.51743e-06 0)
(0.00791286 -7.47656e-06 2.4524e-23)
(0.00799128 -7.46345e-06 -1.98801e-23)
(0.00806883 -7.36342e-06 0)
(0.00814549 -7.30176e-06 7.42652e-24)
(0.00822027 -7.06944e-06 -7.69265e-24)
(0.00829252 -6.90238e-06 -3.9473e-23)
(0.00836144 -6.50054e-06 3.19188e-23)
(0.00842578 -6.25849e-06 0)
(0.00848703 -5.79106e-06 0)
(0.00854171 -5.33147e-06 5.83346e-24)
(0.00859113 -4.72438e-06 1.89233e-24)
(0.00863218 -4.09048e-06 7.84993e-24)
(0.00866725 -3.39278e-06 6.03922e-24)
(0.00869175 -2.55148e-06 -2.37807e-23)
(0.00871132 -1.96794e-06 0)
(0.00871979 -7.23055e-07 8.68655e-24)
(0.00872118 -3.74834e-07 1.56364e-24)
(0.00871903 4.24703e-07 4.56342e-26)
(0.00871736 4.88999e-07 -2.72542e-27)
(0.0103894 4.41754e-06 -6.55294e-28)
(0.0103501 4.27134e-06 3.0772e-29)
(0.0103374 5.45893e-06 0)
(0.0102943 8.04409e-06 -7.01738e-24)
(0.0102398 8.96207e-06 -2.57553e-25)
(0.0101822 1.0382e-05 -1.10521e-26)
(0.0101134 1.14543e-05 6.19084e-23)
(0.0100378 1.27316e-05 0)
(0.00995049 1.37041e-05 1.29673e-22)
(0.00985831 1.44701e-05 -2.81856e-24)
(0.00975967 1.51445e-05 5.31868e-23)
(0.00965774 1.55732e-05 5.83333e-23)
(0.00955205 1.60129e-05 5.51298e-23)
(0.00944397 1.61391e-05 7.61228e-23)
(0.00933411 1.63665e-05 1.26214e-22)
(0.00922329 1.61482e-05 -1.34245e-22)
(0.0091142 1.61403e-05 8.02916e-23)
(0.00900423 1.58371e-05 0)
(0.00889733 1.55924e-05 1.10286e-23)
(0.00879121 1.51544e-05 -1.11829e-22)
(0.00868978 1.46291e-05 9.15939e-23)
(0.00859146 1.41243e-05 1.05617e-22)
(0.00849695 1.35445e-05 1.20879e-23)
(0.00840653 1.29371e-05 2.0406e-25)
(0.00832028 1.23038e-05 9.8667e-23)
(0.00823848 1.16451e-05 -1.23525e-23)
(0.00816116 1.09811e-05 -1.00081e-22)
(0.00808845 1.02929e-05 -6.28522e-23)
(0.00802045 9.61855e-06 1.25536e-23)
(0.00795701 8.93937e-06 0)
(0.00789824 8.26492e-06 0)
(0.00784405 7.59757e-06 -2.49725e-23)
(0.0077944 6.93898e-06 -6.18936e-24)
(0.00774923 6.29337e-06 6.17067e-24)
(0.00770841 5.65844e-06 0)
(0.00767194 5.03388e-06 5.9924e-24)
(0.00763981 4.42235e-06 1.78045e-23)
(0.00761174 3.82875e-06 2.34303e-23)
(0.00758778 3.24453e-06 0)
(0.00756774 2.68154e-06 0)
(0.00755159 2.11925e-06 2.21948e-23)
(0.00753931 1.57429e-06 1.35535e-23)
(0.00753077 1.03415e-06 -2.683e-24)
(0.0075259 5.13286e-07 -3.10844e-23)
(0.00752457 -5.09847e-09 8.84677e-24)
(0.00752684 -5.10492e-07 6.14887e-24)
(0.00753263 -1.01739e-06 -1.01067e-23)
(0.00754191 -1.50547e-06 5.85328e-25)
(0.0075546 -2.00219e-06 1.36776e-25)
(0.00757077 -2.48631e-06 -1.36674e-25)
(0.00759028 -2.96868e-06 2.31887e-24)
(0.00761316 -3.44581e-06 -2.52912e-25)
(0.00763934 -3.92429e-06 0)
(0.00766888 -4.40102e-06 2.73363e-24)
(0.00770178 -4.88224e-06 1.71724e-24)
(0.00773801 -5.35073e-06 1.21756e-23)
(0.00777754 -5.83242e-06 1.22653e-23)
(0.00782043 -6.30244e-06 0)
(0.00786658 -6.77634e-06 1.61045e-23)
(0.007916 -7.24099e-06 -6.17115e-24)
(0.00796861 -7.71115e-06 1.1957e-24)
(0.00802447 -8.17372e-06 0)
(0.0080835 -8.6384e-06 0)
(0.00814568 -9.08788e-06 1.58433e-24)
(0.00821086 -9.53777e-06 -2.96688e-24)
(0.0082791 -9.97507e-06 6.50907e-24)
(0.00835016 -1.04045e-05 -4.29335e-24)
(0.00842409 -1.08237e-05 0)
(0.00850072 -1.12213e-05 -5.64835e-25)
(0.00857983 -1.16038e-05 3.54432e-24)
(0.0086613 -1.19639e-05 4.65192e-24)
(0.00874497 -1.23076e-05 3.33049e-25)
(0.00883065 -1.26167e-05 1.97825e-24)
(0.00891809 -1.29036e-05 -5.80097e-24)
(0.00900704 -1.31564e-05 -8.27003e-24)
(0.00909741 -1.33908e-05 1.19066e-23)
(0.00918877 -1.35537e-05 0)
(0.00928073 -1.3692e-05 2.14936e-24)
(0.00937293 -1.37738e-05 4.58104e-24)
(0.00946532 -1.38272e-05 -2.61296e-25)
(0.00955695 -1.37509e-05 -4.25764e-23)
(0.00964754 -1.36905e-05 7.33853e-23)
(0.00973666 -1.35037e-05 0)
(0.0098241 -1.33334e-05 6.95227e-24)
(0.00990888 -1.29205e-05 -6.35164e-23)
(0.00998997 -1.25527e-05 2.90551e-23)
(0.0100666 -1.18615e-05 -2.93469e-23)
(0.0101372 -1.13465e-05 0)
(0.0102034 -1.05158e-05 0)
(0.0102615 -9.6507e-06 -5.65715e-23)
(0.0103127 -8.56889e-06 0)
(0.0103537 -7.42627e-06 0)
(0.010387 -6.17747e-06 -7.04581e-25)
(0.0104082 -4.75051e-06 2.1974e-23)
(0.0104233 -3.61568e-06 -1.86372e-23)
(0.0104266 -1.67273e-06 -7.71682e-24)
(0.0104222 -8.7291e-07 -2.20299e-25)
(0.0104156 4.00198e-07 -1.04568e-28)
(0.0104097 8.94918e-07 -9.82211e-27)
(0.0119011 6.21878e-06 -1.79679e-27)
(0.0118557 6.71866e-06 3.68807e-24)
(0.0118395 8.53275e-06 0)
(0.0117928 1.20721e-05 -2.69008e-23)
(0.011733 1.37193e-05 -3.58959e-23)
(0.0116697 1.58651e-05 -4.73416e-23)
(0.0115944 1.76243e-05 -5.5888e-23)
(0.0115112 1.95459e-05 0)
(0.0114151 2.10848e-05 -7.74046e-23)
(0.0113133 2.23187e-05 8.7426e-23)
(0.0112044 2.33912e-05 9.72341e-23)
(0.0110918 2.41404e-05 0)
(0.010975 2.48314e-05 -1.15764e-22)
(0.0108553 2.5126e-05 -2.48542e-22)
(0.0107336 2.54638e-05 -1.32476e-22)
(0.0106107 2.52562e-05 1.57749e-22)
(0.0104896 2.52313e-05 -1.64706e-22)
(0.0103675 2.48465e-05 -1.95024e-23)
(0.0102486 2.44696e-05 1.94685e-23)
(0.0101306 2.38427e-05 1.02661e-22)
(0.0100178 2.30704e-05 -2.5176e-22)
(0.00990845 2.23074e-05 4.30152e-23)
(0.00980335 2.14325e-05 -1.53719e-22)
(0.00970278 2.05066e-05 -1.66973e-22)
(0.00960686 1.95357e-05 -9.01012e-23)
(0.00951587 1.85217e-05 1.26608e-25)
(0.00942988 1.74921e-05 2.75346e-22)
(0.00934904 1.64255e-05 -1.15174e-22)
(0.00927346 1.53717e-05 -4.47782e-26)
(0.009203 1.4309e-05 9.23137e-23)
(0.00913778 1.32503e-05 1.03649e-22)
(0.00907771 1.21998e-05 1.37642e-22)
(0.00902275 1.11608e-05 0)
(0.00897285 1.0139e-05 -8.48597e-23)
(0.00892786 9.13232e-06 8.40169e-23)
(0.00888779 8.14226e-06 8.3128e-23)
(0.00885261 7.16946e-06 5.4985e-24)
(0.00882204 6.22123e-06 0)
(0.00879615 5.28774e-06 0)
(0.00877475 4.38239e-06 3.65284e-23)
(0.00875779 3.48171e-06 -1.52936e-23)
(0.00874526 2.60432e-06 0)
(0.00873702 1.7389e-06 3.91594e-23)
(0.00873293 8.99813e-07 1.91106e-23)
(0.00873291 6.59905e-08 -8.16066e-24)
(0.00873703 -7.51514e-07 -1.92531e-23)
(0.0087452 -1.56776e-06 1.70327e-23)
(0.00875739 -2.36022e-06 1.06361e-24)
(0.00877349 -3.16129e-06 -4.63668e-24)
(0.00879361 -3.94629e-06 0)
(0.00881758 -4.72721e-06 1.90873e-24)
(0.00884543 -5.50213e-06 8.22075e-24)
(0.00887708 -6.27729e-06 -8.95696e-25)
(0.00891258 -7.0507e-06 0)
(0.00895196 -7.8279e-06 -1.54561e-24)
(0.00899515 -8.58964e-06 -1.0482e-23)
(0.00904212 -9.36615e-06 -1.27134e-23)
(0.00909293 -1.0128e-05 1.37459e-24)
(0.00914747 -1.08921e-05 9.94078e-24)
(0.00920572 -1.16446e-05 0)
(0.00926759 -1.24011e-05 0)
(0.00933313 -1.31469e-05 -1.73408e-23)
(0.00940223 -1.38912e-05 1.84466e-24)
(0.00947486 -1.46144e-05 0)
(0.00955083 -1.53328e-05 -2.20046e-23)
(0.00963019 -1.6031e-05 -9.4738e-24)
(0.00971264 -1.67133e-05 1.59514e-23)
(0.0097982 -1.7375e-05 1.4241e-24)
(0.00988665 -1.80025e-05 -1.42677e-24)
(0.00997773 -1.86024e-05 7.60675e-24)
(0.0100713 -1.91653e-05 -4.6167e-24)
(0.0101671 -1.96968e-05 4.8067e-26)
(0.0102649 -2.01737e-05 -2.2792e-24)
(0.0103644 -2.06103e-05 5.02122e-24)
(0.0104653 -2.09923e-05 7.32208e-24)
(0.0105674 -2.1334e-05 -9.93556e-24)
(0.0106703 -2.15715e-05 2.81611e-23)
(0.0107734 -2.17586e-05 -3.29099e-23)
(0.0108764 -2.18596e-05 -1.70077e-23)
(0.010979 -2.18974e-05 -4.30612e-23)
(0.0110804 -2.17599e-05 2.59245e-23)
(0.01118 -2.16088e-05 -4.52245e-23)
(0.0112774 -2.12904e-05 0)
(0.0113722 -2.09434e-05 0)
(0.0114635 -2.02878e-05 5.22701e-23)
(0.01155 -1.96273e-05 0)
(0.011631 -1.85676e-05 6.77392e-24)
(0.0117042 -1.76571e-05 -6.7707e-24)
(0.0117719 -1.63538e-05 0)
(0.0118298 -1.49492e-05 4.89725e-23)
(0.0118792 -1.3262e-05 3.1894e-24)
(0.0119169 -1.14665e-05 0)
(0.0119455 -9.52279e-06 0)
(0.0119608 -7.37718e-06 -3.92493e-23)
(0.0119689 -5.52074e-06 1.73373e-23)
(0.0119649 -2.79404e-06 0)
(0.0119528 -1.34293e-06 -1.14965e-23)
(0.0119396 5.16813e-07 -7.64416e-26)
(0.0119275 1.65128e-06 9.30878e-27)
(0.0132665 8.40542e-06 6.30237e-27)
(0.0132146 9.91504e-06 -3.41668e-24)
(0.0131928 1.24658e-05 0)
(0.0131418 1.69713e-05 4.14545e-26)
(0.0130759 1.95651e-05 4.94348e-26)
(0.0130064 2.2554e-05 4.29436e-23)
(0.0129245 2.51379e-05 -1.77972e-24)
(0.012834 2.77941e-05 1.78501e-24)
(0.0127297 2.99955e-05 1.47167e-22)
(0.0126191 3.17852e-05 -8.52461e-23)
(0.0125011 3.33236e-05 -2.56619e-22)
(0.0123791 3.44613e-05 1.05112e-24)
(0.0122527 3.54362e-05 9.36445e-23)
(0.0121232 3.59387e-05 1.14176e-22)
(0.0119916 3.63873e-05 -1.56265e-23)
(0.0118588 3.62154e-05 -8.35088e-25)
(0.0117278 3.61509e-05 -1.35459e-22)
(0.011596 3.56777e-05 -7.10779e-25)
(0.0114675 3.51317e-05 3.6379e-23)
(0.0113403 3.42849e-05 -1.84752e-23)
(0.0112185 3.32243e-05 1.7392e-22)
(0.0111007 3.21489e-05 -3.35324e-22)
(0.0109875 3.0922e-05 3.21942e-22)
(0.0108793 2.96139e-05 1.63565e-22)
(0.0107761 2.82377e-05 -1.6559e-22)
(0.0106783 2.67968e-05 0)
(0.010586 2.53262e-05 -1.68472e-22)
(0.0104993 2.38047e-05 8.46244e-23)
(0.0104183 2.22919e-05 1.06157e-23)
(0.0103429 2.07653e-05 -2.54423e-22)
(0.0102733 1.92411e-05 -2.64531e-22)
(0.0102092 1.77253e-05 -8.4337e-23)
(0.0101508 1.6224e-05 -1.67669e-22)
(0.0100979 1.47438e-05 1.6643e-22)
(0.0100504 1.32838e-05 -1.58412e-26)
(0.0100083 1.1847e-05 -1.41329e-26)
(0.00997158 1.04324e-05 -5.00299e-24)
(0.00993994 9.04948e-06 -7.44037e-23)
(0.00991344 7.68788e-06 0)
(0.00989191 6.36091e-06 -3.8409e-23)
(0.0098753 5.0444e-06 0)
(0.00986359 3.75844e-06 0)
(0.00985657 2.49448e-06 -3.61011e-23)
(0.00985417 1.26252e-06 0)
(0.0098563 3.90267e-08 -2.11841e-24)
(0.00986301 -1.16483e-06 1.98514e-23)
(0.00987422 -2.36314e-06 -8.13964e-24)
(0.00988992 -3.53357e-06 -9.33937e-24)
(0.00990997 -4.7108e-06 4.28149e-24)
(0.00993449 -5.86906e-06 -2.29068e-25)
(0.0099633 -7.02009e-06 -7.05331e-24)
(0.00999641 -8.16445e-06 -1.27119e-23)
(0.0100338 -9.30722e-06 -8.28125e-25)
(0.0100754 -1.04482e-05 -1.50688e-24)
(0.0101213 -1.1591e-05 1.50766e-24)
(0.0101715 -1.27164e-05 2.36228e-23)
(0.0102258 -1.3856e-05 -1.3526e-24)
(0.0102844 -1.49784e-05 0)
(0.0103471 -1.60997e-05 -1.83957e-23)
(0.0104138 -1.72069e-05 0)
(0.0104845 -1.83142e-05 0)
(0.0105593 -1.94072e-05 1.60673e-23)
(0.0106379 -2.04923e-05 -1.71114e-24)
(0.0107203 -2.1549e-05 2.72416e-24)
(0.0108063 -2.25927e-05 1.76724e-23)
(0.0108959 -2.36062e-05 0)
(0.0109888 -2.45921e-05 1.48685e-23)
(0.0110849 -2.55437e-05 0)
(0.011184 -2.64444e-05 0)
(0.0112859 -2.73007e-05 -6.43149e-24)
(0.0113901 -2.81006e-05 0)
(0.0114966 -2.88486e-05 0)
(0.011605 -2.9517e-05 7.33921e-25)
(0.011715 -3.01206e-05 -7.35472e-25)
(0.0118261 -3.06431e-05 1.98833e-24)
(0.0119382 -3.10947e-05 1.88972e-23)
(0.0120507 -3.14046e-05 -2.56136e-23)
(0.0121631 -3.16284e-05 3.11231e-23)
(0.0122748 -3.1729e-05 -3.6859e-24)
(0.0123856 -3.17194e-05 3.54168e-23)
(0.0124945 -3.14863e-05 0)
(0.0126008 -3.11917e-05 -8.38668e-23)
(0.0127042 -3.06861e-05 0)
(0.012804 -3.00844e-05 0)
(0.0128995 -2.9115e-05 9.70118e-23)
(0.0129889 -2.80562e-05 0)
(0.0130715 -2.65357e-05 1.00499e-22)
(0.013145 -2.50962e-05 -1.00724e-22)
(0.0132116 -2.32017e-05 0)
(0.013267 -2.11196e-05 0)
(0.0133126 -1.8696e-05 0)
(0.0133451 -1.61059e-05 1.3184e-24)
(0.0133671 -1.33255e-05 -1.91709e-24)
(0.013375 -1.03267e-05 3.70379e-23)
(0.0133746 -7.58291e-06 -2.29683e-25)
(0.013362 -3.98554e-06 4.17103e-25)
(0.013341 -1.68413e-06 -1.08573e-23)
(0.0133199 8.86869e-07 7.29598e-24)
(0.0133 2.85197e-06 8.93789e-29)
(0.0145092 1.11079e-05 2.88897e-27)
(0.0144502 1.39265e-05 -6.40053e-24)
(0.0144211 1.73295e-05 -2.85803e-23)
(0.0143646 2.28152e-05 4.75173e-26)
(0.0142917 2.65589e-05 3.10295e-23)
(0.0142153 3.04912e-05 -8.03046e-23)
(0.0141264 3.40151e-05 -9.61056e-23)
(0.0140286 3.74846e-05 1.14652e-22)
(0.0139166 4.04393e-05 -1.32042e-22)
(0.0137977 4.28642e-05 1.39111e-22)
(0.0136713 4.49242e-05 1.75412e-22)
(0.0135407 4.65052e-05 0)
(0.0134058 4.77873e-05 -1.27352e-23)
(0.0132677 4.85241e-05 1.27311e-23)
(0.0131277 4.90761e-05 0)
(0.0129865 4.89536e-05 0)
(0.0128473 4.88207e-05 2.48756e-22)
(0.0127076 4.82437e-05 0)
(0.0125715 4.74873e-05 0)
(0.012437 4.63852e-05 1.75723e-23)
(0.0123082 4.49924e-05 -1.75318e-23)
(0.0121839 4.35482e-05 1.64002e-22)
(0.0120646 4.19106e-05 -1.66766e-22)
(0.0119506 4.0156e-05 3.01437e-22)
(0.0118421 3.83063e-05 -1.5259e-22)
(0.0117394 3.63672e-05 3.27692e-22)
(0.0116425 3.43811e-05 1.6657e-25)
(0.0115517 3.23294e-05 -1.7546e-22)
(0.0114671 3.02793e-05 1.56416e-22)
(0.0113885 2.82098e-05 1.56511e-22)
(0.011316 2.61405e-05 1.65999e-22)
(0.0112496 2.40791e-05 -9.73457e-24)
(0.0111892 2.20355e-05 1.64467e-22)
(0.0111348 2.00166e-05 -9.60485e-23)
(0.0110862 1.80233e-05 -6.66084e-23)
(0.0110433 1.606e-05 -7.53533e-23)
(0.0110062 1.41247e-05 0)
(0.0109747 1.22287e-05 -4.54689e-24)
(0.0109487 1.03614e-05 4.5489e-24)
(0.0109281 8.5348e-06 7.10528e-23)
(0.0109128 6.72731e-06 4.31748e-24)
(0.0109027 4.95984e-06 -4.31224e-24)
(0.0108977 3.22457e-06 3.75547e-23)
(0.0108978 1.52468e-06 -4.12717e-24)
(0.0109028 -1.61797e-07 -1.96265e-24)
(0.0109127 -1.8254e-06 3.48358e-23)
(0.0109276 -3.4778e-06 -2.83252e-24)
(0.0109473 -5.09913e-06 7.76447e-24)
(0.0109718 -6.72366e-06 4.47979e-25)
(0.0110011 -8.32691e-06 3.97014e-27)
(0.0110351 -9.91904e-06 3.08131e-24)
(0.0110738 -1.15038e-05 -6.65797e-24)
(0.011117 -1.30844e-05 2.23945e-24)
(0.011165 -1.46628e-05 -1.47108e-24)
(0.0112175 -1.624e-05 0)
(0.0112747 -1.77983e-05 -4.14232e-23)
(0.0113364 -1.93681e-05 2.36664e-24)
(0.0114026 -2.09182e-05 -2.36977e-24)
(0.0114733 -2.24622e-05 -2.06379e-24)
(0.0115483 -2.3989e-05 -2.78558e-23)
(0.0116276 -2.55098e-05 -3.30002e-23)
(0.0117112 -2.70113e-05 -1.43148e-24)
(0.0117988 -2.84956e-05 3.19317e-24)
(0.0118905 -2.9943e-05 4.33727e-23)
(0.0119859 -3.13652e-05 0)
(0.0120851 -3.27448e-05 -1.89363e-24)
(0.0121877 -3.40814e-05 -5.35498e-23)
(0.0122936 -3.53656e-05 -1.24241e-24)
(0.0124025 -3.65786e-05 1.24549e-24)
(0.0125141 -3.77251e-05 1.19531e-24)
(0.0126281 -3.8791e-05 -1.19832e-24)
(0.0127441 -3.97785e-05 0)
(0.0128619 -4.06561e-05 6.75998e-25)
(0.012981 -4.14378e-05 -1.75395e-23)
(0.0131011 -4.21052e-05 -5.74942e-25)
(0.0132217 -4.26622e-05 -1.52858e-23)
(0.0133423 -4.3035e-05 0)
(0.0134623 -4.32758e-05 -3.43657e-24)
(0.0135812 -4.3348e-05 3.44344e-24)
(0.0136984 -4.32517e-05 7.04023e-23)
(0.0138131 -4.28804e-05 -7.6904e-23)
(0.0139244 -4.23811e-05 7.86444e-23)
(0.014032 -4.16222e-05 7.27395e-23)
(0.014135 -4.06742e-05 9.84713e-23)
(0.0142326 -3.93045e-05 -9.09489e-23)
(0.0143228 -3.77312e-05 -9.31962e-23)
(0.0144051 -3.56506e-05 -1.00536e-25)
(0.014477 -3.35479e-05 8.51438e-26)
(0.0145407 -3.09423e-05 -9.2974e-23)
(0.0145921 -2.80457e-05 -9.06625e-23)
(0.0146323 -2.47533e-05 -2.6414e-24)
(0.0146583 -2.12271e-05 -7.92967e-23)
(0.0146726 -1.74699e-05 0)
(0.0146719 -1.3484e-05 -6.81698e-23)
(0.0146621 -9.69328e-06 0)
(0.0146402 -5.13447e-06 -3.51399e-25)
(0.0146094 -1.78917e-06 4.05509e-23)
(0.0145793 1.62354e-06 -6.8894e-24)
(0.0145505 4.59181e-06 -8.36625e-29)
(0.0156473 1.44673e-05 -1.66847e-26)
(0.0155807 1.88164e-05 5.94191e-24)
(0.015543 2.3201e-05 2.69065e-23)
(0.0154797 2.96761e-05 2.18421e-23)
(0.0153992 3.4748e-05 -3.77473e-25)
(0.0153153 3.97126e-05 7.3146e-23)
(0.0152189 4.427e-05 9.16964e-23)
(0.0151136 4.86137e-05 -1.06982e-22)
(0.0149942 5.23956e-05 0)
(0.0148675 5.55249e-05 -1.38747e-22)
(0.0147334 5.81553e-05 3.07833e-22)
(0.014595 6.02246e-05 -3.36996e-22)
(0.0144523 6.18267e-05 0)
(0.0143068 6.28108e-05 -2.52863e-23)
(0.0141594 6.34507e-05 5.20441e-23)
(0.0140111 6.33784e-05 -5.49477e-23)
(0.0138652 6.3143e-05 5.7612e-23)
(0.0137191 6.24374e-05 -2.94155e-23)
(0.0135769 6.14251e-05 -2.80824e-22)
(0.0134367 6.00275e-05 -9.96599e-25)
(0.0133026 5.82554e-05 3.25127e-23)
(0.0131733 5.63841e-05 0)
(0.0130495 5.42758e-05 0)
(0.0129314 5.20096e-05 1.7493e-23)
(0.0128192 4.96184e-05 2.83442e-22)
(0.0127131 4.71104e-05 -1.78674e-23)
(0.0126133 4.45355e-05 -2.88042e-22)
(0.01252 4.18797e-05 1.2664e-22)
(0.0124331 3.92157e-05 -1.4524e-22)
(0.0123527 3.65265e-05 1.81272e-23)
(0.0122788 3.38348e-05 1.4499e-22)
(0.0122113 3.11499e-05 -1.35482e-22)
(0.0121501 2.84862e-05 -8.99977e-24)
(0.0120953 2.58508e-05 -8.89219e-24)
(0.0120467 2.32467e-05 -1.32646e-22)
(0.0120043 2.06798e-05 8.70958e-24)
(0.0119679 1.81472e-05 -9.75096e-26)
(0.0119374 1.56616e-05 -8.53302e-23)
(0.0119128 1.32133e-05 8.46533e-24)
(0.011894 1.08122e-05 -6.61406e-23)
(0.0118808 8.44297e-06 0)
(0.0118731 6.12301e-06 -3.93681e-24)
(0.0118709 3.84363e-06 -2.72076e-23)
(0.0118741 1.60235e-06 0)
(0.0118826 -6.18688e-07 2.96713e-23)
(0.0118963 -2.81368e-06 -2.88819e-23)
(0.0119153 -4.99061e-06 -2.80644e-23)
(0.0119396 -7.13405e-06 0)
(0.0119689 -9.27546e-06 2.02105e-25)
(0.0120034 -1.13938e-05 -2.02187e-25)
(0.0120429 -1.34964e-05 0)
(0.0120874 -1.55907e-05 1.17557e-23)
(0.0121368 -1.76774e-05 0)
(0.0121912 -1.97614e-05 0)
(0.0122505 -2.18396e-05 0)
(0.0123147 -2.38977e-05 2.17494e-23)
(0.0123837 -2.59623e-05 -1.40936e-25)
(0.0124576 -2.80048e-05 -4.29981e-24)
(0.0125361 -3.00343e-05 -3.00838e-23)
(0.0126193 -3.20427e-05 3.55383e-24)
(0.0127069 -3.40362e-05 2.39261e-23)
(0.012799 -3.6004e-05 -5.03854e-23)
(0.0128953 -3.7942e-05 0)
(0.0129958 -3.9833e-05 -4.07323e-23)
(0.0131002 -4.16827e-05 0)
(0.0132084 -4.34743e-05 -3.28572e-23)
(0.01332 -4.52032e-05 2.78921e-23)
(0.013435 -4.68574e-05 -2.36301e-23)
(0.0135529 -4.8416e-05 6.14736e-25)
(0.0136734 -4.98804e-05 1.74403e-24)
(0.0137961 -5.12349e-05 0)
(0.0139208 -5.24782e-05 4.98045e-26)
(0.0140469 -5.35758e-05 -4.99477e-26)
(0.0141741 -5.45392e-05 1.46974e-23)
(0.0143018 -5.53481e-05 0)
(0.0144298 -5.59982e-05 -3.42576e-23)
(0.0145573 -5.64164e-05 -4.9526e-25)
(0.0146836 -5.66462e-05 9.23432e-24)
(0.0148081 -5.66537e-05 -6.4822e-24)
(0.0149304 -5.64241e-05 -1.64519e-25)
(0.0150494 -5.58624e-05 6.85504e-23)
(0.0151642 -5.50826e-05 0)
(0.0152741 -5.39867e-05 -7.88245e-23)
(0.0153784 -5.25884e-05 -1.65648e-22)
(0.0154763 -5.07233e-05 0)
(0.0155658 -4.85218e-05 8.79985e-23)
(0.0156463 -4.57797e-05 -8.88246e-23)
(0.0157151 -4.28782e-05 9.45418e-23)
(0.0157746 -3.94378e-05 8.22278e-23)
(0.0158206 -3.55898e-05 -9.06994e-23)
(0.0158544 -3.12965e-05 5.22799e-24)
(0.0158728 -2.6695e-05 7.49438e-23)
(0.0158785 -2.18243e-05 -6.91621e-23)
(0.0158686 -1.67197e-05 6.42549e-23)
(0.0158487 -1.17309e-05 5.67461e-23)
(0.0158168 -6.11614e-06 -4.659e-23)
(0.0157756 -1.54314e-06 -1.91471e-23)
(0.0157357 2.8424e-06 -1.24797e-25)
(0.0156972 6.96834e-06 7.89e-29)
(0.016695 1.86253e-05 9.83395e-27)
(0.0166206 2.46372e-05 1.09984e-23)
(0.016573 3.01473e-05 7.09749e-26)
(0.016502 3.76268e-05 4.02044e-23)
(0.0164135 4.41763e-05 0)
(0.0163215 5.025e-05 0)
(0.0162175 5.59178e-05 0)
(0.0161046 6.11864e-05 0)
(0.0159778 6.585e-05 0)
(0.0158438 6.9732e-05 0)
(0.0157026 7.29688e-05 -2.46893e-25)
(0.0155572 7.55591e-05 3.15102e-22)
(0.0154079 7.74918e-05 3.41219e-22)
(0.0152557 7.87296e-05 0)
(0.015102 7.94346e-05 -2.50092e-23)
(0.0149479 7.94001e-05 2.49743e-23)
(0.0147964 7.90237e-05 4.30566e-22)
(0.0146452 7.81556e-05 -4.48376e-22)
(0.0144983 7.68386e-05 2.32552e-22)
(0.0143539 7.51001e-05 0)
(0.0142158 7.28987e-05 -3.11635e-23)
(0.0140831 7.05406e-05 3.10841e-23)
(0.0139561 6.78998e-05 0)
(0.0138353 6.50563e-05 -2.60855e-22)
(0.0137207 6.20553e-05 -2.64139e-22)
(0.0136126 5.89082e-05 -2.66925e-22)
(0.0135112 5.56719e-05 2.6895e-22)
(0.0134165 5.23392e-05 -1.69361e-23)
(0.0133287 4.89865e-05 1.68997e-23)
(0.0132476 4.56025e-05 -1.69625e-23)
(0.0131734 4.22127e-05 -3.89521e-22)
(0.0131059 3.88286e-05 1.51943e-22)