/*--------------------------------*- C++ -*----------------------------------*\
| =========                 |                                                 |
| \\      /  F ield         | OpenFOAM: The Open Source CFD Toolbox           |
|  \\    /   O peration     | Version:  4.x                                   |
|   \\  /    A nd           | Web:      www.OpenFOAM.org                      |
|    \\/     M anipulation  |                                                 |
\*---------------------------------------------------------------------------*/
FoamFile
{
    version     2.0;
    format      ascii;
    class       volScalarField;
    location    "98.61";
    object      epsilon;
}
// * * * * * * * * * * * * * * * * * * * * * * * * * * * * * * * * * * * * * //

dimensions      [0 2 -3 0 0 0 0];

internalField   nonuniform List<scalar> 
15625
(
0.00137937
0.00166831
0.00227894
0.00318032
0.00431628
0.00562155
0.00703513
0.00850723
0.0100008
0.0114904
0.0129594
0.0143978
0.0158003
0.0171642
0.018489
0.019775
0.0210232
0.0222352
0.0234123
0.0245561
0.0256683
0.0267503
0.0278036
0.0288294
0.0298291
0.0308038
0.0317547
0.0326828
0.033589
0.0344743
0.0353395
0.0361854
0.0370127
0.0378221
0.0386144
0.03939
0.0401497
0.0408938
0.0416231
0.0423378
0.0430385
0.0437257
0.0443997
0.0450608
0.0457096
0.0463463
0.0469712
0.0475847
0.048187
0.0487785
0.0493593
0.0499298
0.0504902
0.0510406
0.0515814
0.0521127
0.0526347
0.0531476
0.0536516
0.0541468
0.0546334
0.0551115
0.0555812
0.0560428
0.0564962
0.0569417
0.0573794
0.0578093
0.0582315
0.0586462
0.0590534
0.0594532
0.0598456
0.0602308
0.0606088
0.0609797
0.0613435
0.0617002
0.06205
0.0623928
0.0627287
0.0630578
0.0633799
0.0636953
0.0640038
0.0643056
0.0646005
0.0648887
0.0651701
0.0654448
0.0657127
0.0659738
0.0662281
0.0664756
0.0667162
0.0669501
0.0671771
0.0673971
0.0676103
0.0678164
0.0680156
0.0682078
0.0683928
0.0685707
0.0687414
0.0689048
0.069061
0.0692097
0.069351
0.0694848
0.069611
0.0697295
0.0698402
0.0699431
0.0700381
0.070125
0.0702037
0.0702742
0.0703364
0.07039
0.0704351
0.0704714
0.0704988
0.0705173
0.0705266
0.00166831
0.00116218
0.00118058
0.00143639
0.00181859
0.00227199
0.00276346
0.00327153
0.00378221
0.00428672
0.00477989
0.00525896
0.00572271
0.00617089
0.00660374
0.00702186
0.00742594
0.00781674
0.00819501
0.00856149
0.00891685
0.00926174
0.00959673
0.00992238
0.0102392
0.0105476
0.010848
0.0111409
0.0114265
0.0117053
0.0119775
0.0122434
0.0125033
0.0127574
0.0130059
0.0132491
0.0134872
0.0137204
0.0139487
0.0141725
0.0143918
0.0146069
0.0148177
0.0150246
0.0152275
0.0154266
0.015622
0.0158139
0.0160022
0.0161872
0.0163688
0.0165472
0.0167224
0.0168945
0.0170637
0.0172298
0.0173931
0.0175536
0.0177112
0.0178662
0.0180184
0.0181681
0.0183151
0.0184596
0.0186016
0.0187411
0.0188781
0.0190128
0.0191451
0.019275
0.0194026
0.0195279
0.019651
0.0197717
0.0198903
0.0200066
0.0201207
0.0202327
0.0203424
0.02045
0.0205555
0.0206588
0.0207599
0.020859
0.0209559
0.0210507
0.0211433
0.0212339
0.0213223
0.0214087
0.0214929
0.021575
0.021655
0.0217328
0.0218085
0.0218821
0.0219535
0.0220227
0.0220898
0.0221547
0.0222174
0.0222779
0.0223361
0.0223922
0.0224459
0.0224974
0.0225466
0.0225934
0.0226379
0.0226801
0.0227198
0.0227572
0.0227921
0.0228245
0.0228544
0.0228818
0.0229066
0.0229288
0.0229484
0.0229653
0.0229795
0.022991
0.0229996
0.0230055
0.0230084
0.00227894
0.00118058
0.000877412
0.000880787
0.00101845
0.00122011
0.00145285
0.00169942
0.00195015
0.00219952
0.00244441
0.00268318
0.0029151
0.00313992
0.00335773
0.00356876
0.00377331
0.00397173
0.00416434
0.00435148
0.00453346
0.00471057
0.00488306
0.00505118
0.00521517
0.00537521
0.00553151
0.00568423
0.00583355
0.0059796
0.00612253
0.00626246
0.00639952
0.0065338
0.00666543
0.00679448
0.00692106
0.00704525
0.00716712
0.00728674
0.0074042
0.00751955
0.00763286
0.00774417
0.00785356
0.00796106
0.00806673
0.00817061
0.00827274
0.00837317
0.00847193
0.00856906
0.0086646
0.00875857
0.008851
0.00894193
0.00903139
0.00911939
0.00920596
0.00929112
0.00937491
0.00945732
0.00953839
0.00961814
0.00969657
0.00977371
0.00984956
0.00992415
0.00999749
0.0100696
0.0101404
0.0102101
0.0102785
0.0103457
0.0104117
0.0104766
0.0105402
0.0106027
0.010664
0.0107241
0.0107831
0.0108409
0.0108975
0.010953
0.0110073
0.0110604
0.0111124
0.0111633
0.0112129
0.0112614
0.0113088
0.0113549
0.0113999
0.0114437
0.0114863
0.0115278
0.011568
0.011607
0.0116448
0.0116814
0.0117168
0.0117509
0.0117838
0.0118154
0.0118458
0.0118749
0.0119027
0.0119291
0.0119543
0.0119781
0.0120006
0.0120217
0.0120415
0.0120598
0.0120767
0.0120922
0.0121063
0.0121189
0.0121299
0.0121395
0.0121476
0.012154
0.0121589
0.0121622
0.0121639
0.00318032
0.00143639
0.000880787
0.000744696
0.000777415
0.00088455
0.00102585
0.0011825
0.00134508
0.00150865
0.0016706
0.00182955
0.00198484
0.00213621
0.00228362
0.00242713
0.00256688
0.00270303
0.00283577
0.00296524
0.00309163
0.00321507
0.00333571
0.00345369
0.00356911
0.00368209
0.00379274
0.00390115
0.00400741
0.00411159
0.00421378
0.00431404
0.00441245
0.00450905
0.00460392
0.0046971
0.00478865
0.00487861
0.00496702
0.00505394
0.00513939
0.00522342
0.00530606
0.00538735
0.00546731
0.00554598
0.00562338
0.00569954
0.00577449
0.00584825
0.00592085
0.0059923
0.00606262
0.00613184
0.00619997
0.00626703
0.00633303
0.006398
0.00646194
0.00652488
0.00658682
0.00664777
0.00670775
0.00676677
0.00682484
0.00688196
0.00693815
0.00699342
0.00704777
0.00710121
0.00715375
0.00720539
0.00725614
0.00730601
0.00735499
0.0074031
0.00745033
0.00749669
0.00754218
0.00758681
0.00763058
0.00767348
0.00771553
0.00775671
0.00779703
0.0078365
0.0078751
0.00791284
0.00794971
0.00798572
0.00802087
0.00805514
0.00808854
0.00812106
0.0081527
0.00818346
0.00821333
0.0082423
0.00827037
0.00829753
0.00832379
0.00834912
0.00837352
0.008397
0.00841953
0.00844111
0.00846172
0.00848137
0.00850004
0.00851773
0.00853441
0.00855007
0.00856472
0.00857833
0.00859089
0.00860239
0.00861281
0.00862214
0.00863036
0.00863746
0.00864343
0.00864823
0.00865187
0.00865431
0.00865554
0.00431628
0.00181859
0.00101845
0.000777415
0.000746936
0.00080375
0.000898602
0.00101017
0.00112861
0.00124913
0.00136931
0.00148794
0.00160441
0.00171847
0.00183002
0.00193909
0.00204573
0.00215004
0.0022521
0.00235202
0.00244988
0.00254578
0.0026398
0.00273201
0.00282248
0.00291128
0.00299846
0.00308409
0.00316821
0.00325087
0.00333211
0.00341198
0.00349052
0.00356775
0.00364373
0.00371846
0.003792
0.00386436
0.00393557
0.00400566
0.00407466
0.00414257
0.00420944
0.00427527
0.00434009
0.00440391
0.00446675
0.00452864
0.00458958
0.00464959
0.00470869
0.00476688
0.00482419
0.00488062
0.00493619
0.00499091
0.00504479
0.00509784
0.00515006
0.00520148
0.00525209
0.00530191
0.00535094
0.00539919
0.00544667
0.00549338
0.00553934
0.00558454
0.00562899
0.0056727
0.00571568
0.00575792
0.00579943
0.00584021
0.00588027
0.00591962
0.00595824
0.00599615
0.00603335
0.00606984
0.00610561
0.00614068
0.00617505
0.0062087
0.00624165
0.00627389
0.00630542
0.00633625
0.00636636
0.00639576
0.00642446
0.00645243
0.00647969
0.00650623
0.00653205
0.00655714
0.0065815
0.00660513
0.00662802
0.00665017
0.00667157
0.00669222
0.00671211
0.00673124
0.00674959
0.00676717
0.00678397
0.00679997
0.00681518
0.00682957
0.00684315
0.00685591
0.00686783
0.00687891
0.00688913
0.00689849
0.00690697
0.00691456
0.00692125
0.00692703
0.00693188
0.00693579
0.00693875
0.00694074
0.00694174
0.00562155
0.00227199
0.00122011
0.00088455
0.00080375
0.000823243
0.00088487
0.000964909
0.00105294
0.00114409
0.00123596
0.00132734
0.00141761
0.00150649
0.00159385
0.00167966
0.00176391
0.00184666
0.00192794
0.00200781
0.00208631
0.0021635
0.00223941
0.0023141
0.0023876
0.00245994
0.00253116
0.00260129
0.00267035
0.00273837
0.00280538
0.0028714
0.00293644
0.00300054
0.0030637
0.00312594
0.00318729
0.00324775
0.00330734
0.00336608
0.00342398
0.00348104
0.00353729
0.00359274
0.00364739
0.00370126
0.00375435
0.00380668
0.00385826
0.00390909
0.00395919
0.00400855
0.0040572
0.00410513
0.00415236
0.00419889
0.00424473
0.00428988
0.00433435
0.00437815
0.00442128
0.00446375
0.00450556
0.00454672
0.00458723
0.00462709
0.00466632
0.00470491
0.00474286
0.00478019
0.00481689
0.00485297
0.00488843
0.00492327
0.00495749
0.0049911
0.0050241
0.00505649
0.00508827
0.00511944
0.00515001
0.00517996
0.00520932
0.00523806
0.0052662
0.00529374
0.00532066
0.00534699
0.0053727
0.0053978
0.00542229
0.00544617
0.00546944
0.00549208
0.00551411
0.00553552
0.0055563
0.00557646
0.00559598
0.00561487
0.00563312
0.00565072
0.00566768
0.00568398
0.00569963
0.00571461
0.00572892
0.00574255
0.00575551
0.00576777
0.00577934
0.00579021
0.00580036
0.00580979
0.0058185
0.00582646
0.00583368
0.00584015
0.00584585
0.00585076
0.00585489
0.00585822
0.00586074
0.00586243
0.00586328
0.00703513
0.00276346
0.00145285
0.00102585
0.000898602
0.00088487
0.000918088
0.000972176
0.00103593
0.00110414
0.00117421
0.00124481
0.00131523
0.00138509
0.00145421
0.00152248
0.00158986
0.00165634
0.00172193
0.00178665
0.0018505
0.00191351
0.0019757
0.00203709
0.00209768
0.00215751
0.00221658
0.0022749
0.00233249
0.00238936
0.00244551
0.00250097
0.00255573
0.0026098
0.0026632
0.00271593
0.002768
0.0028194
0.00287016
0.00292027
0.00296974
0.00301858
0.00306679
0.00311438
0.00316134
0.00320769
0.00325343
0.00329857
0.0033431
0.00338704
0.00343038
0.00347313
0.00351529
0.00355688
0.00359788
0.00363831
0.00367816
0.00371745
0.00375617
0.00379432
0.00383192
0.00386895
0.00390543
0.00394136
0.00397674
0.00401157
0.00404585
0.00407959
0.00411279
0.00414544
0.00417756
0.00420914
0.00424018
0.00427069
0.00430067
0.00433011
0.00435903
0.00438741
0.00441526
0.00444258
0.00446937
0.00449563
0.00452137
0.00454657
0.00457124
0.00459538
0.004619
0.00464207
0.00466462
0.00468663
0.0047081
0.00472904
0.00474944
0.0047693
0.00478861
0.00480738
0.00482559
0.00484326
0.00486037
0.00487693
0.00489292
0.00490835
0.00492321
0.0049375
0.0049512
0.00496433
0.00497687
0.00498881
0.00500016
0.00501091
0.00502104
0.00503055
0.00503945
0.00504771
0.00505533
0.00506231
0.00506863
0.00507429
0.00507928
0.00508358
0.0050872
0.00509011
0.00509232
0.0050938
0.00509454
0.00850723
0.00327153
0.00169942
0.0011825
0.00101017
0.000964909
0.000972176
0.00100347
0.00104657
0.00109573
0.00114803
0.00120188
0.00125643
0.00131118
0.00136583
0.00142022
0.00147426
0.00152788
0.00158105
0.00163376
0.00168599
0.00173774
0.001789
0.00183979
0.00189009
0.00193991
0.00198925
0.00203812
0.0020865
0.00213441
0.00218185
0.00222881
0.00227529
0.0023213
0.00236683
0.00241189
0.00245648
0.00250059
0.00254422
0.00258738
0.00263007
0.00267228
0.00271401
0.00275527
0.00279605
0.00283636
0.0028762
0.00291556
0.00295444
0.00299285
0.00303079
0.00306826
0.00310525
0.00314176
0.00317781
0.00321338
0.00324848
0.00328311
0.00331727
0.00335096
0.00338417
0.00341692
0.0034492
0.00348101
0.00351235
0.00354323
0.00357363
0.00360357
0.00363305
0.00366205
0.00369059
0.00371867
0.00374628
0.00377342
0.0038001
0.00382631
0.00385206
0.00387734
0.00390215
0.0039265
0.00395038
0.0039738
0.00399675
0.00401922
0.00404123
0.00406277
0.00408384
0.00410443
0.00412455
0.0041442
0.00416337
0.00418206
0.00420027
0.00421799
0.00423524
0.00425199
0.00426826
0.00428403
0.00429931
0.0043141
0.00432838
0.00434215
0.00435542
0.00436818
0.00438042
0.00439214
0.00440334
0.004414
0.00442413
0.00443373
0.00444277
0.00445127
0.00445921
0.00446658
0.00447339
0.00447962
0.00448526
0.00449031
0.00449477
0.00449861
0.00450184
0.00450444
0.00450641
0.00450773
0.0045084
0.0100008
0.00378221
0.00195015
0.00134508
0.00112861
0.00105294
0.00103593
0.00104657
0.00107149
0.00110426
0.00114151
0.00118139
0.00122281
0.00126513
0.00130795
0.00135103
0.00139419
0.00143734
0.0014804
0.00152333
0.00156608
0.00160863
0.00165097
0.00169307
0.00173494
0.00177654
0.00181789
0.00185896
0.00189976
0.00194027
0.00198049
0.00202041
0.00206003
0.00209934
0.00213834
0.00217702
0.00221538
0.00225341
0.00229111
0.00232847
0.00236549
0.00240217
0.00243851
0.00247449
0.00251011
0.00254538
0.00258029
0.00261484
0.00264902
0.00268283
0.00271626
0.00274933
0.00278201
0.00281432
0.00284625
0.00287779
0.00290895
0.00293973
0.00297011
0.00300011
0.00302971
0.00305892
0.00308774
0.00311616
0.00314419
0.00317181
0.00319904
0.00322587
0.0032523
0.00327832
0.00330394
0.00332916
0.00335398
0.00337838
0.00340238
0.00342597
0.00344915
0.00347193
0.00349429
0.00351623
0.00353777
0.00355889
0.00357959
0.00359988
0.00361975
0.0036392
0.00365823
0.00367683
0.00369501
0.00371277
0.00373009
0.00374699
0.00376346
0.00377949
0.00379508
0.00381024
0.00382495
0.00383923
0.00385305
0.00386643
0.00387935
0.00389182
0.00390383
0.00391537
0.00392645
0.00393706
0.00394719
0.00395685
0.00396602
0.00397471
0.0039829
0.00399059
0.00399777
0.00400445
0.00401061
0.00401625
0.00402136
0.00402594
0.00402997
0.00403345
0.00403637
0.00403873
0.00404051
0.0040417
0.00404231
0.0114904
0.00428672
0.00219952
0.00150865
0.00124913
0.00114409
0.00110414
0.00109573
0.00110426
0.00112253
0.0011467
0.00117458
0.00120484
0.00123669
0.00126959
0.00130321
0.00133732
0.00137176
0.00140641
0.00144121
0.00147608
0.00151098
0.00154588
0.00158075
0.00161557
0.00165031
0.00168495
0.00171949
0.00175391
0.00178819
0.00182233
0.00185632
0.00189014
0.00192378
0.00195724
0.00199051
0.00202359
0.00205645
0.0020891
0.00212153
0.00215372
0.00218569
0.00221741
0.00224888
0.00228011
0.00231107
0.00234177
0.0023722
0.00240235
0.00243223
0.00246182
0.00249112
0.00252013
0.00254884
0.00257725
0.00260536
0.00263315
0.00266064
0.00268781
0.00271466
0.00274119
0.00276739
0.00279327
0.00281881
0.00284402
0.0028689
0.00289344
0.00291763
0.00294149
0.002965
0.00298816
0.00301097
0.00303343
0.00305553
0.00307728
0.00309867
0.00311971
0.00314038
0.00316069
0.00318063
0.00320021
0.00321942
0.00323825
0.00325672
0.00327481
0.00329252
0.00330986
0.00332682
0.00334339
0.00335959
0.00337539
0.00339081
0.00340584
0.00342047
0.00343471
0.00344855
0.00346199
0.00347503
0.00348766
0.00349988
0.00351169
0.00352309
0.00353406
0.00354462
0.00355475
0.00356445
0.00357372
0.00358255
0.00359094
0.00359888
0.00360637
0.00361341
0.00361998
0.00362609
0.00363173
0.00363689
0.00364156
0.00364575
0.00364944
0.00365262
0.0036553
0.00365745
0.00365908
0.00366018
0.00366073
0.0129594
0.00477989
0.00244441
0.0016706
0.00136931
0.00123596
0.00117421
0.00114803
0.00114151
0.0011467
0.00115924
0.00117657
0.00119714
0.00121995
0.00124436
0.00126992
0.00129633
0.00132339
0.00135094
0.00137886
0.00140708
0.00143552
0.00146414
0.00149289
0.00152173
0.00155065
0.00157961
0.0016086
0.00163759
0.00166657
0.00169552
0.00172443
0.00175328
0.00178207
0.00181078
0.0018394
0.00186792
0.00189633
0.00192462
0.00195278
0.0019808
0.00200868
0.00203641
0.00206398
0.00209138
0.0021186
0.00214564
0.00217248
0.00219914
0.00222559
0.00225183
0.00227786
0.00230366
0.00232924
0.00235459
0.0023797
0.00240457
0.00242919
0.00245356
0.00247767
0.00250153
0.00252511
0.00254843
0.00257148
0.00259425
0.00261674
0.00263894
0.00266086
0.00268248
0.00270381
0.00272484
0.00274558
0.002766
0.00278613
0.00280594
0.00282544
0.00284462
0.00286349
0.00288204
0.00290026
0.00291816
0.00293573
0.00295298
0.00296989
0.00298646
0.0030027
0.00301859
0.00303415
0.00304936
0.00306423
0.00307874
0.0030929
0.00310671
0.00312016
0.00313325
0.00314598
0.00315835
0.00317034
0.00318197
0.00319322
0.00320409
0.00321459
0.0032247
0.00323442
0.00324376
0.0032527
0.00326124
0.00326937
0.00327711
0.00328443
0.00329134
0.00329782
0.00330389
0.00330952
0.00331472
0.00331948
0.00332379
0.00332765
0.00333105
0.00333399
0.00333646
0.00333845
0.00333995
0.00334096
0.00334147
0.0143978
0.00525896
0.00268318
0.00182955
0.00148794
0.00132734
0.00124481
0.00120188
0.00118139
0.00117458
0.00117657
0.00118446
0.00119643
0.0012113
0.00122829
0.00124685
0.00126662
0.00128733
0.00130877
0.00133081
0.00135332
0.00137623
0.00139947
0.00142298
0.00144672
0.00147064
0.00149473
0.00151895
0.00154327
0.00156768
0.00159216
0.00161668
0.00164124
0.00166582
0.00169041
0.00171499
0.00173955
0.00176409
0.00178858
0.00181302
0.00183739
0.0018617
0.00188593
0.00191007
0.00193411
0.00195804
0.00198186
0.00200556
0.00202913
0.00205256
0.00207585
0.00209898
0.00212196
0.00214477
0.00216741
0.00218988
0.00221215
0.00223424
0.00225614
0.00227783
0.00229932
0.00232059
0.00234165
0.00236249
0.0023831
0.00240348
0.00242362
0.00244353
0.00246318
0.00248259
0.00250175
0.00252065
0.00253929
0.00255767
0.00257578
0.00259362
0.00261118
0.00262846
0.00264547
0.00266219
0.00267862
0.00269476
0.00271061
0.00272616
0.00274141
0.00275636
0.00277101
0.00278534
0.00279937
0.00281308
0.00282648
0.00283955
0.00285231
0.00286473
0.00287684
0.0028886
0.00290004
0.00291114
0.0029219
0.00293231
0.00294238
0.0029521
0.00296147
0.00297047
0.00297912
0.00298741
0.00299533
0.00300287
0.00301004
0.00301684
0.00302324
0.00302926
0.00303489
0.00304011
0.00304494
0.00304936
0.00305336
0.00305694
0.0030601
0.00306283
0.00306512
0.00306697
0.00306836
0.0030693
0.00306977
0.0158003
0.00572271
0.0029151
0.00198484
0.00160441
0.00141761
0.00131523
0.00125643
0.00122281
0.00120484
0.00119714
0.00119643
0.00120064
0.0012084
0.00121881
0.0012312
0.00124514
0.0012603
0.00127642
0.00129334
0.00131092
0.00132904
0.00134762
0.0013666
0.00138591
0.00140552
0.00142538
0.00144546
0.00146574
0.00148618
0.00150677
0.00152748
0.0015483
0.00156921
0.00159019
0.00161124
0.00163234
0.00165346
0.00167462
0.00169578
0.00171695
0.0017381
0.00175924
0.00178035
0.00180141
0.00182244
0.0018434
0.0018643
0.00188513
0.00190587
0.00192653
0.00194708
0.00196754
0.00198788
0.0020081
0.0020282
0.00204817
0.00206799
0.00208767
0.0021072
0.00212657
0.00214577
0.00216481
0.00218366
0.00220234
0.00222083
0.00223913
0.00225723
0.00227513
0.00229282
0.0023103
0.00232756
0.00234461
0.00236142
0.00237801
0.00239436
0.00241048
0.00242636
0.00244198
0.00245736
0.00247249
0.00248736
0.00250197
0.00251632
0.00253039
0.0025442
0.00255774
0.00257099
0.00258397
0.00259666
0.00260907
0.00262119
0.00263301
0.00264454
0.00265576
0.00266669
0.00267731
0.00268762
0.00269761
0.0027073
0.00271666
0.0027257
0.00273441
0.0027428
0.00275085
0.00275856
0.00276594
0.00277297
0.00277965
0.00278598
0.00279195
0.00279756
0.0028028
0.00280768
0.00281218
0.00281629
0.00282003
0.00282337
0.00282632
0.00282886
0.002831
0.00283272
0.00283402
0.0028349
0.00283534
0.0171642
0.00617089
0.00313992
0.00213621
0.00171847
0.00150649
0.00138509
0.00131118
0.00126513
0.00123669
0.00121995
0.0012113
0.0012084
0.00120972
0.00121419
0.00122106
0.00122981
0.00124005
0.00125148
0.0012639
0.00127714
0.00129107
0.00130558
0.00132059
0.00133605
0.00135188
0.00136805
0.00138452
0.00140126
0.00141823
0.00143541
0.00145278
0.00147032
0.001488
0.00150582
0.00152376
0.00154179
0.00155992
0.00157812
0.00159638
0.0016147
0.00163306
0.00165145
0.00166986
0.00168828
0.0017067
0.00172512
0.00174351
0.00176189
0.00178022
0.00179852
0.00181676
0.00183495
0.00185307
0.00187112
0.00188909
0.00190696
0.00192475
0.00194243
0.00196
0.00197745
0.00199478
0.00201199
0.00202906
0.00204598
0.00206277
0.00207939
0.00209586
0.00211217
0.0021283
0.00214427
0.00216005
0.00217564
0.00219105
0.00220626
0.00222127
0.00223608
0.00225068
0.00226507
0.00227924
0.00229319
0.00230691
0.0023204
0.00233366
0.00234668
0.00235946
0.002372
0.00238429
0.00239632
0.0024081
0.00241962
0.00243088
0.00244187
0.00245259
0.00246303
0.0024732
0.00248309
0.0024927
0.00250202
0.00251104
0.00251978
0.00252821
0.00253635
0.00254418
0.0025517
0.0025589
0.00256579
0.00257237
0.00257861
0.00258453
0.00259012
0.00259537
0.00260027
0.00260483
0.00260905
0.0026129
0.0026164
0.00261953
0.00262229
0.00262467
0.00262667
0.00262829
0.00262951
0.00263033
0.00263074
0.018489
0.00660374
0.00335773
0.00228362
0.00183002
0.00159385
0.00145421
0.00136583
0.00130795
0.00126959
0.00124436
0.00122829
0.00121881
0.00121419
0.00121323
0.00121509
0.00121916
0.00122498
0.00123223
0.00124065
0.00125004
0.00126026
0.00127117
0.00128269
0.00129474
0.00130726
0.00132018
0.00133348
0.0013471
0.00136101
0.00137519
0.00138961
0.00140425
0.00141908
0.0014341
0.00144928
0.00146461
0.00148006
0.00149564
0.00151133
0.00152711
0.00154297
0.00155891
0.0015749
0.00159095
0.00160705
0.00162317
0.00163932
0.00165548
0.00167165
0.00168782
0.00170398
0.00172012
0.00173623
0.0017523
0.00176834
0.00178432
0.00180025
0.00181611
0.00183191
0.00184762
0.00186325
0.00187878
0.00189422
0.00190955
0.00192477
0.00193988
0.00195486
0.00196971
0.00198442
0.001999
0.00201343
0.0020277
0.00204182
0.00205577
0.00206956
0.00208317
0.00209661
0.00210986
0.00212293
0.0021358
0.00214847
0.00216095
0.00217322
0.00218528
0.00219712
0.00220875
0.00222015
0.00223133
0.00224228
0.00225299
0.00226347
0.0022737
0.00228369
0.00229343
0.00230292
0.00231214
0.00232111
0.00232982
0.00233825
0.00234642
0.00235431
0.00236192
0.00236925
0.00237629
0.00238304
0.0023895
0.00239565
0.00240151
0.00240706
0.0024123
0.00241722
0.00242183
0.00242611
0.00243006
0.00243368
0.00243697
0.00243991
0.0024425
0.00244474
0.00244662
0.00244813
0.00244928
0.00245005
0.00245044
0.019775
0.00702186
0.00356876
0.00242713
0.00193909
0.00167966
0.00152248
0.00142022
0.00135103
0.00130321
0.00126992
0.00124685
0.0012312
0.00122106
0.00121509
0.00121235
0.00121214
0.00121396
0.00121743
0.00122224
0.00122819
0.00123509
0.0012428
0.00125121
0.00126024
0.00126981
0.00127986
0.00129033
0.00130119
0.00131239
0.00132391
0.00133571
0.00134778
0.00136009
0.00137261
0.00138534
0.00139825
0.00141133
0.00142457
0.00143795
0.00145146
0.00146509
0.00147882
0.00149265
0.00150657
0.00152057
0.00153463
0.00154875
0.00156292
0.00157712
0.00159136
0.00160563
0.0016199
0.00163419
0.00164847
0.00166275
0.00167701
0.00169124
0.00170545
0.00171961
0.00173373
0.0017478
0.00176181
0.00177575
0.00178962
0.00180341
0.00181711
0.00183072
0.00184424
0.00185765
0.00187094
0.00188412
0.00189718
0.00191011
0.00192291
0.00193557
0.00194808
0.00196044
0.00197265
0.0019847
0.00199658
0.00200829
0.00201983
0.00203118
0.00204236
0.00205334
0.00206413
0.00207472
0.00208511
0.0020953
0.00210527
0.00211503
0.00212457
0.00213389
0.00214298
0.00215184
0.00216046
0.00216885
0.00217699
0.00218488
0.00219253
0.00219992
0.00220705
0.00221393
0.00222053
0.00222686
0.00223293
0.00223871
0.00224421
0.00224942
0.00225435
0.00225898
0.00226331
0.00226733
0.00227105
0.00227446
0.00227755
0.00228031
0.00228275
0.00228486
0.00228663
0.00228806
0.00228914
0.00228986
0.00229023
0.0210232
0.00742594
0.00377331
0.00256688
0.00204573
0.00176391
0.00158986
0.00147426
0.00139419
0.00133732
0.00129633
0.00126662
0.00124514
0.00122981
0.00121916
0.00121214
0.00120799
0.00120614
0.00120615
0.00120769
0.00121052
0.00121442
0.00121926
0.00122488
0.00123121
0.00123814
0.00124561
0.00125357
0.00126197
0.00127075
0.0012799
0.00128937
0.00129914
0.00130919
0.00131949
0.00133002
0.00134078
0.00135173
0.00136287
0.00137418
0.00138565
0.00139727
0.00140902
0.0014209
0.0014329
0.001445
0.00145719
0.00146948
0.00148183
0.00149426
0.00150675
0.00151929
0.00153187
0.00154449
0.00155714
0.00156981
0.00158249
0.00159517
0.00160785
0.00162053
0.00163318
0.00164582
0.00165842
0.00167098
0.0016835
0.00169597
0.00170838
0.00172073
0.00173301
0.00174521
0.00175732
0.00176935
0.00178128
0.00179311
0.00180483
0.00181644
0.00182794
0.0018393
0.00185054
0.00186164
0.00187261
0.00188342
0.00189409
0.0019046
0.00191495
0.00192514
0.00193515
0.00194499
0.00195465
0.00196413
0.00197341
0.00198251
0.0019914
0.0020001
0.00200859
0.00201687
0.00202493
0.00203278
0.0020404
0.0020478
0.00205496
0.0020619
0.00206859
0.00207504
0.00208124
0.00208719
0.00209289
0.00209832
0.0021035
0.0021084
0.00211304
0.00211739
0.00212147
0.00212526
0.00212877
0.00213198
0.00213489
0.00213749
0.00213979
0.00214178
0.00214345
0.0021448
0.00214582
0.0021465
0.00214684
0.0222352
0.00781674
0.00397173
0.00270303
0.00215004
0.00184666
0.00165634
0.00152788
0.00143734
0.00137176
0.00132339
0.00128733
0.0012603
0.00124005
0.00122498
0.00121396
0.00120614
0.00120087
0.0011977
0.00119624
0.00119622
0.0011974
0.00119962
0.00120273
0.00120661
0.00121117
0.00121633
0.00122203
0.00122822
0.00123484
0.00124186
0.00124924
0.00125695
0.00126497
0.00127327
0.00128184
0.00129065
0.00129969
0.00130894
0.00131839
0.00132803
0.00133783
0.0013478
0.00135791
0.00136817
0.00137855
0.00138905
0.00139967
0.00141038
0.00142119
0.00143208
0.00144305
0.00145408
0.00146518
0.00147633
0.00148752
0.00149875
0.00151001
0.0015213
0.00153259
0.0015439
0.00155521
0.00156651
0.0015778
0.00158908
0.00160032
0.00161154
0.00162271
0.00163384
0.00164491
0.00165593
0.00166689
0.00167777
0.00168858
0.0016993
0.00170993
0.00172047
0.00173091
0.00174125
0.00175147
0.00176157
0.00177155
0.00178141
0.00179113
0.00180071
0.00181015
0.00181944
0.00182857
0.00183755
0.00184636
0.00185501
0.00186348
0.00187178
0.0018799
0.00188782
0.00189556
0.0019031
0.00191045
0.00191759
0.00192452
0.00193124
0.00193774
0.00194402
0.00195008
0.0019559
0.0019615
0.00196685
0.00197197
0.00197684
0.00198146
0.00198582
0.00198993
0.00199377
0.00199735
0.00200065
0.00200368
0.00200642
0.00200888
0.00201106
0.00201293
0.00201451
0.00201578
0.00201674
0.00201739
0.00201771
0.0234123
0.00819501
0.00416434
0.00283577
0.0022521
0.00192794
0.00172193
0.00158105
0.0014804
0.00140641
0.00135094
0.00130877
0.00127642
0.00125148
0.00123223
0.00121743
0.00120615
0.0011977
0.00119156
0.00118732
0.00118467
0.00118336
0.00118319
0.00118399
0.00118566
0.00118807
0.00119114
0.0011948
0.00119898
0.00120365
0.00120875
0.00121425
0.00122011
0.0012263
0.00123281
0.00123961
0.00124667
0.00125398
0.00126153
0.0012693
0.00127727
0.00128543
0.00129378
0.0013023
0.00131097
0.00131979
0.00132876
0.00133785
0.00134707
0.0013564
0.00136583
0.00137536
0.00138498
0.00139468
0.00140445
0.00141429
0.00142418
0.00143413
0.00144413
0.00145416
0.00146422
0.0014743
0.0014844
0.00149451
0.00150463
0.00151474
0.00152484
0.00153492
0.00154498
0.00155501
0.001565
0.00157495
0.00158486
0.00159471
0.00160449
0.00161422
0.00162386
0.00163343
0.00164292
0.00165231
0.00166161
0.00167081
0.0016799
0.00168888
0.00169774
0.00170647
0.00171508
0.00172356
0.00173189
0.00174009
0.00174813
0.00175602
0.00176375
0.00177132
0.00177872
0.00178595
0.001793
0.00179987
0.00180656
0.00181305
0.00181935
0.00182545
0.00183135
0.00183704
0.00184251
0.00184777
0.00185281
0.00185762
0.00186221
0.00186656
0.00187067
0.00187454
0.00187816
0.00188154
0.00188465
0.00188751
0.0018901
0.00189243
0.00189448
0.00189625
0.00189774
0.00189894
0.00189984
0.00190045
0.00190076
0.0245561
0.00856149
0.00435148
0.00296524
0.00235202
0.00200781
0.00178665
0.00163376
0.00152333
0.00144121
0.00137886
0.00133081
0.00129334
0.0012639
0.00124065
0.00122224
0.00120769
0.00119624
0.00118732
0.00118049
0.0011754
0.00117177
0.0011694
0.00116809
0.00116772
0.00116817
0.00116933
0.00117114
0.00117351
0.00117641
0.00117977
0.00118356
0.00118774
0.00119229
0.00119717
0.00120236
0.00120784
0.00121359
0.0012196
0.00122584
0.00123231
0.00123899
0.00124586
0.00125292
0.00126016
0.00126756
0.00127512
0.00128283
0.00129068
0.00129865
0.00130675
0.00131496
0.00132328
0.0013317
0.00134021
0.0013488
0.00135747
0.00136621
0.00137501
0.00138386
0.00139277
0.00140172
0.00141071
0.00141972
0.00142876
0.00143781
0.00144687
0.00145594
0.001465
0.00147405
0.00148309
0.0014921
0.00150108
0.00151004
0.00151895
0.00152781
0.00153662
0.00154537
0.00155406
0.00156267
0.00157121
0.00157967
0.00158804
0.00159632
0.0016045
0.00161257
0.00162054
0.00162839
0.00163612
0.00164373
0.0016512
0.00165854
0.00166574
0.00167279
0.00167969
0.00168644
0.00169303
0.00169946
0.00170571
0.00171179
0.00171769
0.00172341
0.00172895
0.00173429
0.00173943
0.00174437
0.00174911
0.00175364
0.00175796
0.00176205
0.00176593
0.00176957
0.00177299
0.00177617
0.00177911
0.00178181
0.00178426
0.00178645
0.00178838
0.00179006
0.00179146
0.0017926
0.00179346
0.00179403
0.00179432
0.0256683
0.00891685
0.00453346
0.00309163
0.00244988
0.00208631
0.0018505
0.00168599
0.00156608
0.00147608
0.00140708
0.00135332
0.00131092
0.00127714
0.00125004
0.00122819
0.00121052
0.00119622
0.00118467
0.0011754
0.00116802
0.00116224
0.00115782
0.00115456
0.00115232
0.00115095
0.00115037
0.00115047
0.0011512
0.00115248
0.00115426
0.0011565
0.00115916
0.0011622
0.00116561
0.00116934
0.00117339
0.00117772
0.00118232
0.00118718
0.00119228
0.0011976
0.00120314
0.00120887
0.0012148
0.00122091
0.00122719
0.00123363
0.00124022
0.00124696
0.00125383
0.00126083
0.00126796
0.00127519
0.00128254
0.00128998
0.00129751
0.00130513
0.00131283
0.0013206
0.00132844
0.00133633
0.00134428
0.00135228
0.00136031
0.00136838
0.00137647
0.00138458
0.00139271
0.00140085
0.00140899
0.00141712
0.00142524
0.00143335
0.00144144
0.00144949
0.00145751
0.00146549
0.00147343
0.00148131
0.00148913
0.00149689
0.00150458
0.0015122
0.00151973
0.00152718
0.00153454
0.00154179
0.00154895
0.001556
0.00156293
0.00156975
0.00157644
0.001583
0.00158943
0.00159572
0.00160187
0.00160787
0.00161372
0.00161941
0.00162493
0.00163029
0.00163548
0.00164049
0.00164531
0.00164996
0.00165441
0.00165867
0.00166273
0.00166659
0.00167023
0.00167367
0.00167689
0.00167989
0.00168266
0.00168521
0.00168752
0.00168959
0.00169141
0.00169299
0.00169432
0.00169539
0.0016962
0.00169675
0.00169702
0.0267503
0.00926174
0.00471057
0.00321507
0.00254578
0.0021635
0.00191351
0.00173774
0.00160863
0.00151098
0.00143552
0.00137623
0.00132904
0.00129107
0.00126026
0.00123509
0.00121442
0.0011974
0.00118336
0.00117177
0.00116224
0.00115443
0.0011481
0.00114302
0.00113904
0.001136
0.0011338
0.00113235
0.00113155
0.00113135
0.00113168
0.0011325
0.00113377
0.00113545
0.00113751
0.00113992
0.00114265
0.00114569
0.00114902
0.00115261
0.00115646
0.00116055
0.00116486
0.00116939
0.00117412
0.00117904
0.00118415
0.00118943
0.00119487
0.00120047
0.00120622
0.00121211
0.00121813
0.00122428
0.00123055
0.00123693
0.00124342
0.00125
0.00125668
0.00126344
0.00127029
0.0012772
0.00128418
0.00129123
0.00129833
0.00130547
0.00131266
0.00131988
0.00132714
0.00133442
0.00134171
0.00134902
0.00135633