/*--------------------------------*- C++ -*----------------------------------*\
| =========                 |                                                 |
| \\      /  F ield         | OpenFOAM: The Open Source CFD Toolbox           |
|  \\    /   O peration     | Version:  4.x                                   |
|   \\  /    A nd           | Web:      www.OpenFOAM.org                      |
|    \\/     M anipulation  |                                                 |
\*---------------------------------------------------------------------------*/
FoamFile
{
    version     2.0;
    format      ascii;
    class       volScalarField;
    location    "98.61";
    object      k;
}
// * * * * * * * * * * * * * * * * * * * * * * * * * * * * * * * * * * * * * //

dimensions      [0 2 -2 0 0 0 0];

internalField   nonuniform List<scalar> 
15625
(
0.000449799
0.000510604
0.00062862
0.000785017
0.000962289
0.00114763
0.00133275
0.00151272
0.00168496
0.00184837
0.00200272
0.00214831
0.00228564
0.00241536
0.00253809
0.00265446
0.00276502
0.00287029
0.00297072
0.00306671
0.00315862
0.00324677
0.00333144
0.00341289
0.00349134
0.00356699
0.00364003
0.00371061
0.00377889
0.003845
0.00390906
0.00397119
0.00403149
0.00409006
0.00414698
0.00420233
0.00425618
0.00430861
0.00435968
0.00440945
0.00445797
0.0045053
0.00455147
0.00459655
0.00464056
0.00468355
0.00472556
0.00476662
0.00480676
0.00484601
0.00488441
0.00492197
0.00495873
0.0049947
0.00502992
0.0050644
0.00509817
0.00513123
0.00516362
0.00519534
0.00522642
0.00525687
0.0052867
0.00531592
0.00534456
0.00537262
0.00540011
0.00542705
0.00545345
0.0054793
0.00550464
0.00552945
0.00555376
0.00557757
0.00560088
0.0056237
0.00564605
0.00566792
0.00568932
0.00571025
0.00573073
0.00575075
0.00577032
0.00578945
0.00580813
0.00582637
0.00584417
0.00586154
0.00587847
0.00589498
0.00591105
0.0059267
0.00594192
0.00595672
0.00597109
0.00598503
0.00599855
0.00601164
0.00602431
0.00603655
0.00604837
0.00605975
0.00607071
0.00608123
0.00609132
0.00610097
0.00611018
0.00611895
0.00612728
0.00613515
0.00614258
0.00614955
0.00615606
0.0061621
0.00616768
0.00617278
0.0061774
0.00618154
0.00618518
0.00618832
0.00619096
0.00619309
0.0061947
0.00619578
0.00619632
0.000510604
0.000427613
0.000442971
0.000506855
0.000594872
0.000693479
0.000794888
0.000894734
0.000990751
0.00108193
0.00116798
0.00124902
0.00132533
0.00139728
0.00146527
0.00152967
0.0015908
0.00164898
0.00170448
0.00175753
0.00180834
0.00185709
0.00190395
0.00194906
0.00199254
0.00203452
0.00207509
0.00211435
0.00215238
0.00218925
0.00222502
0.00225977
0.00229355
0.00232641
0.0023584
0.00238955
0.00241992
0.00244953
0.00247842
0.00250662
0.00253417
0.00256108
0.00258739
0.00261311
0.00263828
0.0026629
0.00268701
0.00271061
0.00273372
0.00275636
0.00277855
0.0028003
0.00282161
0.00284251
0.00286301
0.00288311
0.00290283
0.00292217
0.00294115
0.00295976
0.00297803
0.00299596
0.00301356
0.00303082
0.00304777
0.0030644
0.00308072
0.00309673
0.00311244
0.00312786
0.00314299
0.00315783
0.00317238
0.00318666
0.00320066
0.00321438
0.00322784
0.00324102
0.00325394
0.0032666
0.00327899
0.00329112
0.00330299
0.00331461
0.00332597
0.00333707
0.00334792
0.00335852
0.00336886
0.00337895
0.00338878
0.00339837
0.0034077
0.00341678
0.0034256
0.00343418
0.00344249
0.00345056
0.00345836
0.00346591
0.0034732
0.00348023
0.003487
0.00349351
0.00349975
0.00350573
0.00351144
0.00351688
0.00352204
0.00352693
0.00353154
0.00353587
0.00353991
0.00354367
0.00354714
0.00355031
0.00355318
0.00355576
0.00355802
0.00355998
0.00356163
0.00356295
0.00356395
0.00356463
0.00356497
0.00062862
0.000442971
0.000405356
0.000438702
0.000507302
0.000592639
0.000684437
0.000776977
0.00086722
0.000953701
0.00103586
0.00111361
0.00118714
0.00125672
0.00132269
0.00138535
0.00144502
0.00150195
0.0015564
0.00160858
0.00165868
0.00170686
0.00175329
0.00179809
0.00184137
0.00188325
0.00192382
0.00196316
0.00200135
0.00203846
0.00207455
0.00210968
0.0021439
0.00217725
0.00220979
0.00224155
0.00227256
0.00230287
0.0023325
0.00236148
0.00238984
0.0024176
0.00244479
0.00247143
0.00249754
0.00252313
0.00254823
0.00257285
0.002597
0.00262071
0.00264397
0.00266681
0.00268924
0.00271127
0.00273291
0.00275416
0.00277504
0.00279556
0.00281571
0.00283552
0.00285499
0.00287412
0.00289292
0.00291139
0.00292955
0.00294739
0.00296492
0.00298215
0.00299908
0.0030157
0.00303204
0.00304808
0.00306383
0.0030793
0.00309449
0.00310939
0.00312402
0.00313837
0.00315244
0.00316624
0.00317977
0.00319302
0.003206
0.00321872
0.00323116
0.00324334
0.00325524
0.00326688
0.00327825
0.00328934
0.00330017
0.00331073
0.00332102
0.00333103
0.00334077
0.00335024
0.00335943
0.00336835
0.00337699
0.00338534
0.00339342
0.00340121
0.00340872
0.00341594
0.00342287
0.0034295
0.00343584
0.00344188
0.00344762
0.00345306
0.00345819
0.003463
0.00346751
0.00347169
0.00347555
0.00347908
0.00348229
0.00348515
0.00348768
0.00348986
0.0034917
0.00349317
0.00349429
0.00349504
0.00349542
0.000785017
0.000506855
0.000438702
0.000470551
0.000551153
0.000653841
0.000764338
0.000875168
0.000982634
0.0010851
0.00118203
0.00127344
0.00135962
0.00144096
0.0015179
0.00159084
0.00166015
0.00172617
0.00178921
0.00184953
0.00190737
0.00196293
0.00201639
0.00206792
0.00211766
0.00216574
0.00221228
0.00225737
0.0023011
0.00234357
0.00238485
0.002425
0.00246409
0.00250218
0.00253931
0.00257554
0.00261091
0.00264546
0.00267923
0.00271225
0.00274455
0.00277617
0.00280712
0.00283744
0.00286716
0.00289628
0.00292483
0.00295284
0.00298031
0.00300727
0.00303372
0.0030597
0.0030852
0.00311024
0.00313484
0.003159
0.00318274
0.00320606
0.00322897
0.00325149
0.00327361
0.00329536
0.00331673
0.00333773
0.00335836
0.00337864
0.00339857
0.00341815
0.00343738
0.00345628
0.00347485
0.00349308
0.00351099
0.00352857
0.00354583
0.00356277
0.0035794
0.00359571
0.0036117
0.00362739
0.00364277
0.00365783
0.00367259
0.00368704
0.00370119
0.00371503
0.00372856
0.00374179
0.00375471
0.00376733
0.00377964
0.00379164
0.00380334
0.00381472
0.0038258
0.00383656
0.00384701
0.00385715
0.00386697
0.00387647
0.00388565
0.00389451
0.00390304
0.00391125
0.00391913
0.00392667
0.00393388
0.00394075
0.00394727
0.00395345
0.00395928
0.00396476
0.00396987
0.00397463
0.00397902
0.00398303
0.00398668
0.00398994
0.00399281
0.00399529
0.00399737
0.00399905
0.00400032
0.00400118
0.00400161
0.000962289
0.000594872
0.000507302
0.000551153
0.000655951
0.000784757
0.000919245
0.00105103
0.00117661
0.00129481
0.00140553
0.00150916
0.00160627
0.00169748
0.00178337
0.00186449
0.00194134
0.00201432
0.00208383
0.00215018
0.00221366
0.00227453
0.00233299
0.00238925
0.00244348
0.00249581
0.0025464
0.00259537
0.00264281
0.00268883
0.00273352
0.00277695
0.0028192
0.00286033
0.00290041
0.00293948
0.00297761
0.00301483
0.00305119
0.00308672
0.00312147
0.00315547
0.00318874
0.00322132
0.00325323
0.0032845
0.00331516
0.00334521
0.00337469
0.00340361
0.00343198
0.00345984
0.00348718
0.00351402
0.00354038
0.00356627
0.00359171
0.00361669
0.00364123
0.00366535
0.00368905
0.00371233
0.00373521
0.0037577
0.00377979
0.0038015
0.00382283
0.00384379
0.00386438
0.00388461
0.00390448
0.00392399
0.00394316
0.00396197
0.00398045
0.00399857
0.00401636
0.00403382
0.00405093
0.00406772
0.00408417
0.00410029
0.00411608
0.00413155
0.00414668
0.00416149
0.00417597
0.00419012
0.00420394
0.00421744
0.00423061
0.00424345
0.00425596
0.00426814
0.00427999
0.0042915
0.00430268
0.00431353
0.00432403
0.0043342
0.00434402
0.0043535
0.00436263
0.0043714
0.00437983
0.0043879
0.00439561
0.00440296
0.00440994
0.00441655
0.00442278
0.00442864
0.00443412
0.0044392
0.0044439
0.0044482
0.00445209
0.00445558
0.00445865
0.00446131
0.00446353
0.00446533
0.00446669
0.0044676
0.00446806
0.00114763
0.000693479
0.000592639
0.000653841
0.000784757
0.000937955
0.00109241
0.00124011
0.0013785
0.00150721
0.00162674
0.00173788
0.0018415
0.00193842
0.00202938
0.00211504
0.00219596
0.00227266
0.00234555
0.002415
0.00248135
0.00254486
0.00260579
0.00266435
0.00272073
0.0027751
0.00282761
0.00287838
0.00292755
0.0029752
0.00302145
0.00306638
0.00311006
0.00315257
0.00319397
0.00323433
0.00327369
0.0033121
0.00334962
0.00338628
0.00342213
0.00345719
0.0034915
0.0035251
0.003558
0.00359024
0.00362184
0.00365283
0.00368321
0.00371303
0.00374228
0.00377099
0.00379918
0.00382686
0.00385404
0.00388074
0.00390696
0.00393273
0.00395804
0.00398292
0.00400736
0.00403138
0.00405499
0.00407819
0.00410099
0.0041234
0.00414541
0.00416705
0.00418831
0.00420919
0.00422971
0.00424986
0.00426966
0.00428909
0.00430817
0.0043269
0.00434529
0.00436332
0.00438101
0.00439836
0.00441537
0.00443203
0.00444836
0.00446435
0.00448
0.00449531
0.00451029
0.00452493
0.00453923
0.00455319
0.00456682
0.0045801
0.00459305
0.00460566
0.00461792
0.00462984
0.00464141
0.00465263
0.00466351
0.00467403
0.0046842
0.00469401
0.00470347
0.00471256
0.00472128
0.00472964
0.00473763
0.00474524
0.00475247
0.00475931
0.00476577
0.00477184
0.00477751
0.00478278
0.00478765
0.0047921
0.00479613
0.00479975
0.00480293
0.00480568
0.00480799
0.00480985
0.00481126
0.0048122
0.00481268
0.00133275
0.000794888
0.000684437
0.000764338
0.000919245
0.00109241
0.00126171
0.00142032
0.00156693
0.00170201
0.00182661
0.00194189
0.00204895
0.00214875
0.00224216
0.00232991
0.00241264
0.0024909
0.00256515
0.0026358
0.00270319
0.00276763
0.00282938
0.00288867
0.0029457
0.00300065
0.00305367
0.00310492
0.00315451
0.00320256
0.00324917
0.00329443
0.00333842
0.00338122
0.00342289
0.0034635
0.00350311
0.00354176
0.00357951
0.00361639
0.00365245
0.00368772
0.00372224
0.00375604
0.00378915
0.0038216
0.0038534
0.00388459
0.00391518
0.0039452
0.00397466
0.00400359
0.00403199
0.00405988
0.00408727
0.00411419
0.00414063
0.00416662
0.00419216
0.00421726
0.00424194
0.00426619
0.00429003
0.00431346
0.0043365
0.00435914
0.0043814
0.00440327
0.00442477
0.0044459
0.00446666
0.00448706
0.00450709
0.00452677
0.0045461
0.00456507
0.0045837
0.00460198
0.00461991
0.0046375
0.00465474
0.00467165
0.00468821
0.00470444
0.00472032
0.00473586
0.00475107
0.00476594
0.00478046
0.00479465
0.00480849
0.00482199
0.00483515
0.00484796
0.00486042
0.00487254
0.00488431
0.00489573
0.00490679
0.00491749
0.00492784
0.00493783
0.00494745
0.0049567
0.00496558
0.00497409
0.00498222
0.00498996
0.00499733
0.0050043
0.00501088
0.00501706
0.00502283
0.0050282
0.00503315
0.00503769
0.0050418
0.00504548
0.00504873
0.00505153
0.00505388
0.00505578
0.00505721
0.00505818
0.00505866
0.00151272
0.000894734
0.000776977
0.000875168
0.00105103
0.00124011
0.00142032
0.00158641
0.00173827
0.00187717
0.00200462
0.00212205
0.00223074
0.0023318
0.00242615
0.00251459
0.00259782
0.00267641
0.00275085
0.00282157
0.00288893
0.00295327
0.00301485
0.00307391
0.00313067
0.00318531
0.003238
0.00328888
0.00333809
0.00338575
0.00343196
0.0034768
0.00352038
0.00356277
0.00360403
0.00364424
0.00368344
0.00372169
0.00375905
0.00379555
0.00383124
0.00386616
0.00390033
0.00393379
0.00396658
0.00399871
0.00403022
0.00406112
0.00409144
0.0041212
0.00415041
0.0041791
0.00420727
0.00423495
0.00426215
0.00428888
0.00431515
0.00434098
0.00436637
0.00439133
0.00441588
0.00444001
0.00446375
0.00448709
0.00451004
0.0045326
0.00455479
0.00457661
0.00459806
0.00461914
0.00463987
0.00466024
0.00468026
0.00469993
0.00471925
0.00473822
0.00475686
0.00477515
0.0047931
0.00481071
0.00482798
0.00484492
0.00486152
0.00487778
0.00489371
0.0049093
0.00492456
0.00493948
0.00495406
0.0049683
0.0049822
0.00499577
0.00500899
0.00502186
0.00503439
0.00504658
0.00505841
0.00506989
0.00508102
0.00509179
0.0051022
0.00511225
0.00512194
0.00513125
0.0051402
0.00514876
0.00515695
0.00516476
0.00517217
0.0051792
0.00518583
0.00519206
0.00519788
0.00520329
0.00520828
0.00521286
0.005217
0.00522071
0.00522398
0.00522681
0.00522918
0.00523109
0.00523254
0.00523351
0.005234
0.00168496
0.000990751
0.00086722
0.000982634
0.00117661
0.0013785
0.00156693
0.00173827
0.00189358
0.00203478
0.00216378
0.00228224
0.00239158
0.00249299
0.00258746
0.00267583
0.00275883
0.00283706
0.00291103
0.0029812
0.00304794
0.00311158
0.00317242
0.0032307
0.00328664
0.00334045
0.00339228
0.00344229
0.00349063
0.0035374
0.00358272
0.00362669
0.00366939
0.0037109
0.00375131
0.00379066
0.00382903
0.00386647
0.00390302
0.00393873
0.00397365
0.00400781
0.00404125
0.004074
0.00410609
0.00413755
0.00416839
0.00419866
0.00422836
0.00425752
0.00428616
0.00431429
0.00434193
0.00436909
0.00439579
0.00442204
0.00444785
0.00447323
0.0044982
0.00452275
0.00454691
0.00457067
0.00459405
0.00461704
0.00463967
0.00466192
0.00468382
0.00470535
0.00472654
0.00474737
0.00476786
0.004788
0.00480781
0.00482727
0.0048464
0.0048652
0.00488366
0.00490179
0.00491959
0.00493707
0.00495421
0.00497103
0.00498752
0.00500368
0.00501951
0.00503501
0.00505018
0.00506503
0.00507954
0.00509372
0.00510756
0.00512107
0.00513425
0.00514708
0.00515957
0.00517172
0.00518353
0.00519499
0.00520609
0.00521684
0.00522724
0.00523728
0.00524695
0.00525626
0.00526519
0.00527376
0.00528194
0.00528975
0.00529716
0.00530419
0.00531082
0.00531705
0.00532287
0.00532829
0.00533329
0.00533786
0.00534201
0.00534572
0.005349
0.00535183
0.0053542
0.00535612
0.00535757
0.00535854
0.00535903
0.00184837
0.00108193
0.000953701
0.0010851
0.00129481
0.00150721
0.00170201
0.00187717
0.00203478
0.00217737
0.00230717
0.00242602
0.00253546
0.00263673
0.00273088
0.00281879
0.00290118
0.0029787
0.00305188
0.00312116
0.00318695
0.00324959
0.00330938
0.00336658
0.0034214
0.00347407
0.00352474
0.00357359
0.00362074
0.00366634
0.00371048
0.00375327
0.0037948
0.00383516
0.00387441
0.00391263
0.00394988
0.00398621
0.00402168
0.00405633
0.0040902
0.00412333
0.00415577
0.00418753
0.00421866
0.00424918
0.00427911
0.00430849
0.00433732
0.00436564
0.00439345
0.00442079
0.00444765
0.00447406
0.00450004
0.00452558
0.00455071
0.00457543
0.00459976
0.0046237
0.00464726
0.00467045
0.00469328
0.00471574
0.00473785
0.00475962
0.00478104
0.00480212
0.00482286
0.00484328
0.00486336
0.00488312
0.00490256
0.00492167
0.00494046
0.00495893
0.00497709
0.00499493
0.00501245
0.00502965
0.00504654
0.00506311
0.00507937
0.00509531
0.00511094
0.00512624
0.00514123
0.00515589
0.00517024
0.00518426
0.00519795
0.00521132
0.00522436
0.00523707
0.00524944
0.00526148
0.00527318
0.00528454
0.00529555
0.00530622
0.00531654
0.0053265
0.0053361
0.00534534
0.00535422
0.00536273
0.00537086
0.00537862
0.00538599
0.00539297
0.00539957
0.00540576
0.00541156
0.00541694
0.00542192
0.00542647
0.0054306
0.0054343
0.00543756
0.00544037
0.00544273
0.00544464
0.00544608
0.00544705
0.00544754
0.00200272
0.00116798
0.00103586
0.00118203
0.00140553
0.00162674
0.00182661
0.00200462
0.00216378
0.00230717
0.00243729
0.00255616
0.00266538
0.00276626
0.00285988
0.00294712
0.00302874
0.00310539
0.00317761
0.00324587
0.00331057
0.00337207
0.00343066
0.00348663
0.00354019
0.00359156
0.00364093
0.00368845
0.00373427
0.00377852
0.00382131
0.00386276
0.00390295
0.00394197
0.0039799
0.00401681
0.00405275
0.0040878
0.00412199
0.00415539
0.00418802
0.00421994
0.00425119
0.00428178
0.00431176
0.00434116
0.00436999
0.00439829
0.00442607
0.00445336
0.00448017
0.00450653
0.00453244
0.00455793
0.004583
0.00460766
0.00463194
0.00465584
0.00467936
0.00470252
0.00472533
0.00474778
0.0047699
0.00479168
0.00481313
0.00483425
0.00485505
0.00487554
0.00489571
0.00491557
0.00493511
0.00495436
0.00497329
0.00499193
0.00501026
0.00502829
0.00504602
0.00506345
0.00508058
0.00509741
0.00511394
0.00513017
0.0051461
0.00516172
0.00517704
0.00519206
0.00520677
0.00522117
0.00523526
0.00524905
0.00526251
0.00527566
0.0052885
0.00530101
0.0053132
0.00532506
0.00533659
0.00534779
0.00535866
0.00536918
0.00537936
0.0053892
0.00539868
0.00540781
0.00541658
0.00542499
0.00543303
0.0054407
0.00544799
0.0054549
0.00546143
0.00546756
0.00547329
0.00547862
0.00548355
0.00548806
0.00549215
0.00549581
0.00549904
0.00550183
0.00550417
0.00550606
0.00550749
0.00550845
0.00550893
0.00214831
0.00124902
0.00111361
0.00127344
0.00150916
0.00173788
0.00194189
0.00212205
0.00228224
0.00242602
0.00255616
0.0026748
0.00278363
0.00288397
0.00297694
0.00306343
0.00314422
0.00321995
0.00329117
0.00335836
0.00342194
0.00348225
0.00353961
0.0035943
0.00364655
0.00369658
0.00374458
0.00379071
0.00383512
0.00387796
0.00391933
0.00395935
0.00399811
0.0040357
0.00407221
0.00410769
0.00414223
0.00417588
0.00420869
0.00424072
0.004272
0.00430258
0.00433251
0.00436181
0.00439051
0.00441865
0.00444625
0.00447334
0.00449994
0.00452607
0.00455174
0.00457699
0.00460181
0.00462623
0.00465027
0.00467393
0.00469722
0.00472015
0.00474274
0.00476499
0.00478691
0.00480851
0.00482979
0.00485076
0.00487143
0.00489179
0.00491185
0.00493162
0.0049511
0.00497029
0.00498919
0.0050078
0.00502614
0.00504419
0.00506195
0.00507944
0.00509665
0.00511357
0.00513022
0.00514658
0.00516266
0.00517846
0.00519397
0.00520919
0.00522413
0.00523878
0.00525314
0.0052672
0.00528097
0.00529445
0.00530762
0.00532049
0.00533305
0.0053453
0.00535725
0.00536887
0.00538018
0.00539117
0.00540183
0.00541217
0.00542217
0.00543183
0.00544115
0.00545013
0.00545875
0.00546703
0.00547494
0.00548249
0.00548967
0.00549647
0.0055029
0.00550894
0.00551459
0.00551985
0.0055247
0.00552915
0.00553318
0.00553679
0.00553997
0.00554273
0.00554504
0.0055469
0.00554831
0.00554926
0.00554973
0.00228564
0.00132533
0.00118714
0.00135962
0.00160627
0.0018415
0.00204895
0.00223074
0.00239158
0.00253546
0.00266538
0.00278363
0.00289192
0.00299165
0.00308391
0.00316963
0.00324957
0.00332438
0.00339462
0.00346077
0.00352323
0.00358239
0.00363854
0.00369197
0.00374292
0.00379162
0.00383826
0.003883
0.003926
0.00396741
0.00400734
0.0040459
0.00408321
0.00411934
0.00415438
0.0041884
0.00422148
0.00425368
0.00428504
0.00431563
0.0043455
0.00437467
0.0044032
0.00443112
0.00445847
0.00448527
0.00451155
0.00453734
0.00456265
0.00458753
0.00461197
0.004636
0.00465964
0.0046829
0.0047058
0.00472834
0.00475054
0.00477241
0.00479397
0.0048152
0.00483614
0.00485677
0.00487712
0.00489717
0.00491695
0.00493645
0.00495567
0.00497463
0.00499332
0.00501174
0.0050299
0.00504779
0.00506543
0.00508281
0.00509992
0.00511678
0.00513338
0.00514971
0.00516579
0.0051816
0.00519715
0.00521244
0.00522746
0.00524222
0.0052567
0.00527091
0.00528485
0.00529851
0.00531189
0.00532499
0.00533781
0.00535034
0.00536257
0.00537451
0.00538616
0.0053975
0.00540854
0.00541926
0.00542968
0.00543978
0.00544955
0.005459
0.00546812
0.00547691
0.00548535
0.00549345
0.00550121
0.0055086
0.00551564
0.00552232
0.00552862
0.00553455
0.00554009
0.00554525
0.00555002
0.00555438
0.00555834
0.00556189
0.00556502
0.00556772
0.00556999
0.00557182
0.00557321
0.00557414
0.00557461
0.00241536
0.00139728
0.00125672
0.00144096
0.00169748
0.00193842
0.00214875
0.0023318
0.00249299
0.00263673
0.00276626
0.00288397
0.00299165
0.0030907
0.00318223
0.00326716
0.00334627
0.00342019
0.00348949
0.00355463
0.00361604
0.00367409
0.00372908
0.00378131
0.00383102
0.00387844
0.00392376
0.00396715
0.00400878
0.00404879
0.0040873
0.00412443
0.00416029
0.00419496
0.00422854
0.0042611
0.00429271
0.00432343
0.00435333
0.00438247
0.00441087
0.00443861
0.00446571
0.00449221
0.00451814
0.00454355
0.00456846
0.00459288
0.00461686
0.00464041
0.00466356
0.00468631
0.00470869
0.00473071
0.0047524
0.00477375
0.00479478
0.00481551
0.00483595
0.00485609
0.00487596
0.00489555
0.00491487
0.00493393
0.00495274
0.00497129
0.0049896
0.00500766
0.00502547
0.00504305
0.00506038
0.00507748
0.00509434
0.00511096
0.00512735
0.0051435
0.00515941
0.00517508
0.00519052
0.00520571
0.00522067
0.00523537
0.00524984
0.00526405
0.00527802
0.00529173
0.00530519
0.00531838
0.00533132
0.00534399
0.0053564
0.00536853
0.00538039
0.00539197
0.00540326
0.00541427
0.00542499
0.00543541
0.00544554
0.00545536
0.00546487
0.00547407
0.00548296
0.00549152
0.00549975
0.00550765
0.00551521
0.00552243
0.0055293
0.00553582
0.00554197
0.00554776
0.00555318
0.00555822
0.00556288
0.00556715
0.00557102
0.00557449
0.00557756
0.0055802
0.00558242
0.00558422
0.00558557
0.00558648
0.00558694
0.00253809
0.00146527
0.00132269
0.0015179
0.00178337
0.00202938
0.00224216
0.00242615
0.00258746
0.00273088
0.00285988
0.00297694
0.00308391
0.00318223
0.003273
0.00335715
0.00343544
0.00350851
0.00357691
0.00364111
0.00370153
0.00375854
0.00381245
0.00386355
0.0039121
0.0039583
0.00400237
0.00404448
0.00408479
0.00412346
0.0041606
0.00419635
0.0042308
0.00426405
0.00429619
0.00432731
0.00435747
0.00438674
0.00441519
0.00444286
0.00446982
0.0044961
0.00452176
0.00454682
0.00457133
0.00459532
0.00461882
0.00464186
0.00466447
0.00468666
0.00470846
0.00472988
0.00475096
0.0047717
0.00479211
0.00481222
0.00483203
0.00485156
0.00487081
0.0048898
0.00490853
0.00492702
0.00494525
0.00496325
0.00498102
0.00499856
0.00501588
0.00503297
0.00504985
0.00506651
0.00508295
0.00509918
0.0051152
0.005131
0.00514659
0.00516196
0.00517713
0.00519207
0.0052068
0.00522131
0.0052356
0.00524967
0.00526352
0.00527714
0.00529052
0.00530368
0.0053166
0.00532928
0.00534172
0.00535391
0.00536585
0.00537754
0.00538897
0.00540014
0.00541104
0.00542168
0.00543204
0.00544211
0.00545191
0.00546142
0.00547063
0.00547955
0.00548816
0.00549646
0.00550445
0.00551212
0.00551946
0.00552647
0.00553315
0.00553949
0.00554547
0.00555111
0.00555638
0.00556129
0.00556582
0.00556998
0.00557375
0.00557714
0.00558012
0.0055827
0.00558486
0.00558661
0.00558793
0.00558882
0.00558927
0.00265446
0.00152967
0.00138535
0.00159084
0.00186449
0.00211504
0.00232991
0.00251459
0.00267583
0.00281879
0.00294712
0.00306343
0.00316963
0.00326716
0.00335715
0.00344052
0.003518
0.00359024
0.00365779
0.0037211
0.0037806
0.00383665
0.00388956
0.00393961
0.00398706
0.00403213
0.00407503
0.00411594
0.00415501
0.00419241
0.00422826
0.00426268
0.00429578
0.00432767
0.00435843
0.00438815
0.0044169
0.00444475
0.00447177
0.00449802
0.00452354
0.00454839
0.00457261
0.00459625
0.00461934
0.00464191
0.004664
0.00468564
0.00470685
0.00472766
0.0047481
0.00476818
0.00478792
0.00480734
0.00482645
0.00484528
0.00486383
0.00488211
0.00490014
0.00491793
0.00493548
0.0049528
0.00496991
0.00498679
0.00500347
0.00501994
0.00503621
0.00505229
0.00506816
0.00508385
0.00509934
0.00511465
0.00512976
0.00514468
0.00515942
0.00517396
0.00518832
0.00520248
0.00521644
0.00523022
0.00524379
0.00525717
0.00527034
0.0052833
0.00529606
0.00530861
0.00532094
0.00533305
0.00534494
0.00535661
0.00536804
0.00537924
0.0053902
0.00540092
0.00541138
0.0054216
0.00543156
0.00544126
0.00545069
0.00545984
0.00546872
0.00547732
0.00548563
0.00549364
0.00550136
0.00550877
0.00551587
0.00552265
0.00552911
0.00553524
0.00554104
0.00554649
0.0055516
0.00555636
0.00556076
0.00556479
0.00556845
0.00557173
0.00557462
0.00557713
0.00557923
0.00558092
0.00558221
0.00558307
0.0055835
0.00276502
0.0015908
0.00144502
0.00166015
0.00194134
0.00219596
0.00241264
0.00259782
0.00275883
0.00290118
0.00302874
0.00314422
0.00324957
0.00334627
0.00343544
0.003518
0.00359469
0.00366613
0.00373286
0.00379534
0.00385397
0.00390912
0.0039611
0.00401018
0.00405662
0.00410065
0.00414246
0.00418225
0.00422017
0.00425637
0.004291
0.00432417
0.004356
0.00438659
0.00441603
0.00444442
0.00447181
0.0044983
0.00452394
0.0045488
0.00457292
0.00459637
0.00461919
0.00464142
0.0046631
0.00468427
0.00470496
0.00472521
0.00474504
0.00476447
0.00478354
0.00480226
0.00482065
0.00483874
0.00485654
0.00487406
0.00489132
0.00490834
0.00492511
0.00494167
0.004958
0.00497413
0.00499006
0.00500579
0.00502133
0.0050367
0.00505188
0.00506689
0.00508172
0.00509638
0.00511088
0.00512521
0.00513937
0.00515337
0.0051672
0.00518086
0.00519435
0.00520768
0.00522083
0.00523382
0.00524662
0.00525925
0.0052717
0.00528397
0.00529605
0.00530794
0.00531964
0.00533114
0.00534243
0.00535352
0.00536441
0.00537507
0.00538552
0.00539575
0.00540574
0.0054155
0.00542502
0.0054343
0.00544333
0.0054521
0.00546062
0.00546886
0.00547684
0.00548453
0.00549195
0.00549907
0.0055059
0.00551243
0.00551865
0.00552456
0.00553014
0.00553541
0.00554033
0.00554492
0.00554917
0.00555306
0.00555659
0.00555976
0.00556256
0.00556497
0.00556701
0.00556864
0.00556988
0.00557072
0.00557114
0.00287029
0.00164898
0.00150195
0.00172617
0.00201432
0.00227266
0.0024909
0.00267641
0.00283706
0.0029787
0.00310539
0.00321995
0.00332438
0.00342019
0.00350851
0.00359024
0.00366613
0.00373678
0.00380272
0.0038644
0.00392222
0.00397653
0.00402764
0.00407583
0.00412134
0.0041644
0.00420522
0.00424396
0.00428081
0.00431591
0.0043494
0.00438141
0.00441204
0.00444141
0.0044696
0.00449671
0.00452282
0.004548
0.00457232
0.00459584
0.00461862
0.00464071
0.00466217
0.00468303
0.00470334
0.00472313
0.00474245
0.00476132
0.00477978
0.00479784
0.00481555
0.00483292
0.00484997
0.00486672
0.0048832
0.00489941
0.00491537
0.0049311
0.00494661
0.00496191
0.00497701
0.00499192
0.00500664
0.00502119
0.00503558
0.0050498
0.00506385
0.00507776
0.00509151
0.00510512
0.00511858
0.00513189
0.00514506
0.00515809
0.00517097
0.0051837
0.0051963
0.00520874
0.00522104
0.00523319
0.00524519
0.00525703
0.00526871
0.00528024
0.00529159
0.00530279
0.0053138
0.00532465
0.00533531
0.00534579
0.00535608
0.00536618
0.00537607
0.00538577
0.00539525
0.00540452
0.00541357
0.0054224
0.00543099
0.00543935
0.00544746
0.00545533
0.00546294
0.00547029
0.00547738
0.00548419
0.00549073
0.00549698
0.00550294
0.0055086
0.00551396
0.005519
0.00552373
0.00552814
0.00553221
0.00553595
0.00553935
0.00554239
0.00554508
0.0055474
0.00554936
0.00555094
0.00555213
0.00555293
0.00555334
0.00297072
0.00170448
0.0015564
0.00178921
0.00208383
0.00234555
0.00256515
0.00275085
0.00291103
0.00305188
0.00317761
0.00329117
0.00339462
0.00348949
0.00357691
0.00365779
0.00373286
0.00380272
0.00386788
0.0039288
0.00398585
0.00403937
0.00408967
0.00413703
0.00418168
0.00422385
0.00426374
0.00430153
0.00433739
0.00437146
0.0044039
0.00443481
0.00446433
0.00449255
0.00451957
0.00454549
0.00457038
0.00459432
0.00461738
0.00463963
0.00466112
0.00468191
0.00470205
0.00472158
0.00474056
0.00475902
0.004777
0.00479452
0.00481164
0.00482836
0.00484473
0.00486076
0.00487648
0.00489191
0.00490707
0.00492197
0.00493663
0.00495108
0.00496531
0.00497935
0.0049932
0.00500687
0.00502038
0.00503373
0.00504693
0.00505998
0.0050729
0.00508567
0.00509832
0.00511083
0.00512322
0.00513549
0.00514763
0.00515965
0.00517155
0.00518333
0.00519498
0.00520651
0.00521791
0.00522919
0.00524034
0.00525135
0.00526223
0.00527297
0.00528357
0.00529402
0.00530433
0.00531447
0.00532447
0.00533429
0.00534395
0.00535344
0.00536275
0.00537188
0.00538082
0.00538956
0.00539811
0.00540645
0.00541458
0.00542249
0.00543017
0.00543763
0.00544486
0.00545184
0.00545857
0.00546505
0.00547127
0.00547722
0.00548289
0.00548829
0.00549339
0.00549821
0.00550272
0.00550693
0.00551082
0.0055144
0.00551764
0.00552055
0.00552312
0.00552535
0.00552722
0.00552873
0.00552987
0.00553064
0.00553102
0.00306671
0.00175753
0.00160858
0.00184953
0.00215018
0.002415
0.0026358
0.00282157
0.0029812
0.00312116
0.00324587
0.00335836
0.00346077
0.00355463
0.00364111
0.0037211
0.00379534
0.0038644
0.0039288
0.00398896
0.00404526
0.00409803
0.00414757
0.00419415
0.004238
0.00427935
0.00431839
0.0043553
0.00439024
0.00442337
0.00445483
0.00448474
0.00451322
0.00454037
0.0045663
0.00459109
0.00461484
0.00463761
0.00465948
0.00468051
0.00470078
0.00472032
0.0047392
0.00475747
0.00477517
0.00479233
0.00480901
0.00482524
0.00484104
0.00485646
0.00487151
0.00488623
0.00490064
0.00491477
0.00492862
0.00494223
0.00495561
0.00496877
0.00498173
0.0049945
0.00500711
0.00501954
0.00503183
0.00504397
0.00505597
0.00506784
0.00507959
0.00509122
0.00510273
0.00511414
0.00512544
0.00513663
0.00514772
0.00515871
0.00516959
0.00518038
0.00519106
0.00520164
0.00521212
0.00522249
0.00523275
0.0052429
0.00525294
0.00526287
0.00527267
0.00528235
0.0052919
0.00530132
0.0053106
0.00531975
0.00532874
0.00533759
0.00534628
0.00535481
0.00536317
0.00537136
0.00537937
0.00538719
0.00539482
0.00540226
0.00540949
0.00541651
0.00542332
0.0054299
0.00543626
0.00544238
0.00544826
0.00545388
0.00545926
0.00546437
0.00546921
0.00547377
0.00547805
0.00548205
0.00548574
0.00548914
0.00549222
0.00549499
0.00549743
0.00549955
0.00550133
0.00550276
0.00550385
0.00550458
0.00550495
0.00315862
0.00180834
0.00165868
0.00190737
0.00221366
0.00248135
0.00270319
0.00288893
0.00304794
0.00318695
0.00331057
0.00342194
0.00352323
0.00361604
0.00370153
0.0037806
0.00385397
0.00392222
0.00398585
0.00404526
0.00410083
0.00415288
0.0042017
0.00424754
0.00429065
0.00433123
0.00436948
0.00440557
0.00443967
0.00447193
0.00450248
0.00453146
0.00455897
0.00458514
0.00461005
0.00463379
0.00465646
0.00467814
0.00469889
0.00471878
0.00473788
0.00475624
0.00477393
0.00479098
0.00480745
0.00482338
0.00483881
0.00485377
0.00486831
0.00488246
0.00489624
0.00490968
0.00492281
0.00493565
0.00494823
0.00496056
0.00497266
0.00498456
0.00499626
0.00500778
0.00501914
0.00503034
0.0050414
0.00505233
0.00506313
0.00507381
0.00508439
0.00509486
0.00510523
0.00511551
0.0051257
0.0051358
0.00514582
0.00515575
0.0051656
0.00517537
0.00518506
0.00519466
0.00520418
0.00521362
0.00522297
0.00523223
0.0052414
0.00525047
0.00525945
0.00526833
0.0052771
0.00528576
0.0052943
0.00530273
0.00531103
0.0053192
0.00532724
0.00533514
0.00534289
0.00535049
0.00535794
0.00536521
0.00537232
0.00537926
0.00538601
0.00539257
0.00539893
0.0054051
0.00541105
0.00541679
0.0054223
0.00542759
0.00543264
0.00543744
0.005442
0.0054463
0.00545033
0.00545409
0.00545758
0.00546078
0.0054637
0.00546631
0.00546862
0.00547062
0.0054723
0.00547366
0.00547468
0.00547537
0.00547572
0.00324677
0.00185709
0.00170686
0.00196293
0.00227453
0.00254486
0.00276763
0.00295327
0.00311158
0.00324959
0.00337207
0.00348225
0.00358239
0.00367409
0.00375854
0.00383665
0.00390912
0.00397653
0.00403937
0.00409803
0.00415288
0.00420422
0.00425234
0.00429749
0.00433989
0.00437975
0.00441726
0.0044526
0.00448592
0.00451737
0.00454709
0.00457521
0.00460183
0.00462707
0.00465103
0.00467381
0.00469548
0.00471612
0.00473582
0.00475464
0.00477264
0.00478989
0.00480644
0.00482234
0.00483763
0.00485238
0.00486661