/*--------------------------------*- C++ -*----------------------------------*\
| =========                 |                                                 |
| \\      /  F ield         | OpenFOAM: The Open Source CFD Toolbox           |
|  \\    /   O peration     | Version:  2306                                  |
|   \\  /    A nd           | Website:  www.openfoam.com                      |
|    \\/     M anipulation  |                                                 |
\*---------------------------------------------------------------------------*/
// * * * * * * * * * * * * * * * * * * * * * * * * * * * * * * * * * * * * * //
FoamFile
{
    version         2;
    format          ascii;
    class           volScalarField;
    location        "98.61";
    object          nut;
}

dimensions      [ 0 2 -1 0 0 0 0 ];

internalField   nonuniform List<scalar> 
15625
(
1.32008e-05
1.40648e-05
1.56058e-05
1.74394e-05
1.93083e-05
2.10859e-05
2.27229e-05
2.42086e-05
2.55497e-05
2.67599e-05
2.78549e-05
2.88496e-05
2.97574e-05
3.05902e-05
3.13577e-05
3.20685e-05
3.27296e-05
3.33468e-05
3.39251e-05
3.44689e-05
3.49816e-05
3.54664e-05
3.59259e-05
3.63624e-05
3.67779e-05
3.71742e-05
3.75529e-05
3.79152e-05
3.82625e-05
3.85957e-05
3.89159e-05
3.9224e-05
3.95206e-05
3.98067e-05
4.00827e-05
4.03493e-05
4.0607e-05
4.08564e-05
4.10978e-05
4.13317e-05
4.15585e-05
4.17785e-05
4.1992e-05
4.21995e-05
4.2401e-05
4.2597e-05
4.27876e-05
4.2973e-05
4.31536e-05
4.33294e-05
4.35008e-05
4.36677e-05
4.38305e-05
4.39892e-05
4.4144e-05
4.4295e-05
4.44424e-05
4.45863e-05
4.47268e-05
4.4864e-05
4.4998e-05
4.51289e-05
4.52567e-05
4.53816e-05
4.55037e-05
4.5623e-05
4.57396e-05
4.58535e-05
4.59649e-05
4.60738e-05
4.61801e-05
4.62841e-05
4.63857e-05
4.6485e-05
4.65821e-05
4.66769e-05
4.67695e-05
4.686e-05
4.69484e-05
4.70347e-05
4.7119e-05
4.72012e-05
4.72815e-05
4.73598e-05
4.74361e-05
4.75105e-05
4.75831e-05
4.76537e-05
4.77225e-05
4.77894e-05
4.78546e-05
4.79179e-05
4.79794e-05
4.8039e-05
4.8097e-05
4.81531e-05
4.82074e-05
4.826e-05
4.83108e-05
4.83599e-05
4.84072e-05
4.84527e-05
4.84965e-05
4.85385e-05
4.85788e-05
4.86172e-05
4.86539e-05
4.86888e-05
4.87219e-05
4.87533e-05
4.87828e-05
4.88104e-05
4.88362e-05
4.88602e-05
4.88823e-05
4.89025e-05
4.89208e-05
4.89372e-05
4.89516e-05
4.89641e-05
4.89745e-05
4.89829e-05
4.89893e-05
4.89935e-05
4.89957e-05
1.40648e-05
1.41603e-05
1.49588e-05
1.60968e-05
1.75127e-05
1.90504e-05
2.05779e-05
2.20232e-05
2.33575e-05
2.45762e-05
2.56861e-05
2.6698e-05
2.7624e-05
2.8475e-05
2.9261e-05
2.99905e-05
3.06707e-05
3.13076e-05
3.19063e-05
3.24711e-05
3.30057e-05
3.35131e-05
3.3996e-05
3.44568e-05
3.48973e-05
3.53194e-05
3.57246e-05
3.61141e-05
3.64892e-05
3.6851e-05
3.72003e-05
3.7538e-05
3.78649e-05
3.81817e-05
3.84889e-05
3.87871e-05
3.90769e-05
3.93587e-05
3.9633e-05
3.99e-05
4.01603e-05
4.0414e-05
4.06616e-05
4.09032e-05
4.11392e-05
4.13698e-05
4.15951e-05
4.18155e-05
4.20311e-05
4.22421e-05
4.24486e-05
4.26508e-05
4.28489e-05
4.30429e-05
4.3233e-05
4.34194e-05
4.36021e-05
4.37812e-05
4.39569e-05
4.41291e-05
4.42981e-05
4.44638e-05
4.46264e-05
4.4786e-05
4.49425e-05
4.5096e-05
4.52467e-05
4.53945e-05
4.55395e-05
4.56818e-05
4.58213e-05
4.59582e-05
4.60925e-05
4.62242e-05
4.63533e-05
4.64798e-05
4.66039e-05
4.67255e-05
4.68446e-05
4.69613e-05
4.70755e-05
4.71874e-05
4.72968e-05
4.74039e-05
4.75087e-05
4.7611e-05
4.77111e-05
4.78088e-05
4.79041e-05
4.79971e-05
4.80878e-05
4.81762e-05
4.82623e-05
4.8346e-05
4.84274e-05
4.85064e-05
4.85831e-05
4.86575e-05
4.87294e-05
4.87991e-05
4.88663e-05
4.89311e-05
4.89936e-05
4.90536e-05
4.91112e-05
4.91663e-05
4.92189e-05
4.92691e-05
4.93167e-05
4.93618e-05
4.94043e-05
4.94442e-05
4.94816e-05
4.95162e-05
4.95482e-05
4.95775e-05
4.9604e-05
4.96277e-05
4.96486e-05
4.96667e-05
4.96819e-05
4.96941e-05
4.97033e-05
4.97095e-05
4.97127e-05
1.56058e-05
1.49588e-05
1.68543e-05
1.96658e-05
2.27424e-05
2.59074e-05
2.90195e-05
3.19712e-05
3.47082e-05
3.72169e-05
3.95065e-05
4.15967e-05
4.35103e-05
4.52692e-05
4.68933e-05
4.84e-05
4.9804e-05
5.1118e-05
5.23525e-05
5.35166e-05
5.46179e-05
5.5663e-05
5.66576e-05
5.76065e-05
5.85138e-05
5.93834e-05
6.02184e-05
6.10216e-05
6.17956e-05
6.25426e-05
6.32646e-05
6.39633e-05
6.46404e-05
6.52972e-05
6.5935e-05
6.65551e-05
6.71585e-05
6.77461e-05
6.83188e-05
6.88774e-05
6.94227e-05
6.99552e-05
7.04757e-05
7.09846e-05
7.14825e-05
7.19699e-05
7.24473e-05
7.29149e-05
7.33732e-05
7.38225e-05
7.42632e-05
7.46956e-05
7.51198e-05
7.55362e-05
7.59451e-05
7.63466e-05
7.67409e-05
7.71282e-05
7.75088e-05
7.78827e-05
7.82501e-05
7.86111e-05
7.8966e-05
7.93147e-05
7.96574e-05
7.99943e-05
8.03254e-05
8.06507e-05
8.09705e-05
8.12847e-05
8.15934e-05
8.18966e-05
8.21946e-05
8.24872e-05
8.27745e-05
8.30566e-05
8.33335e-05
8.36053e-05
8.38719e-05
8.41334e-05
8.43898e-05
8.46412e-05
8.48875e-05
8.51288e-05
8.5365e-05
8.55962e-05
8.58223e-05
8.60434e-05
8.62594e-05
8.64704e-05
8.66764e-05
8.68772e-05
8.7073e-05
8.72636e-05
8.74491e-05
8.76294e-05
8.78045e-05
8.79744e-05
8.8139e-05
8.82983e-05
8.84523e-05
8.86009e-05
8.87441e-05
8.88818e-05
8.90141e-05
8.91407e-05
8.92617e-05
8.93771e-05
8.94867e-05
8.95905e-05
8.96885e-05
8.97805e-05
8.98665e-05
8.99465e-05
9.00202e-05
9.00878e-05
9.0149e-05
9.02038e-05
9.02521e-05
9.02939e-05
9.03289e-05
9.03572e-05
9.03785e-05
9.03929e-05
9.04001e-05
1.74394e-05
1.60968e-05
1.96658e-05
2.67594e-05
3.51668e-05
4.34976e-05
5.1254e-05
5.82938e-05
6.46066e-05
7.02412e-05
7.52705e-05
7.97724e-05
8.38203e-05
8.7479e-05
9.08043e-05
9.38429e-05
9.66341e-05
9.92108e-05
0.0001016
0.000103826
0.000105907
0.00010786
0.000109699
0.000111437
0.000113083
0.000114647
0.000116136
0.000117558
0.000118919
0.000120224
0.000121477
0.000122682
0.000123845
0.000124967
0.000126051
0.000127101
0.000128119
0.000129107
0.000130067
0.000131
0.000131909
0.000132794
0.000133657
0.0001345
0.000135323
0.000136127
0.000136914
0.000137683
0.000138437
0.000139175
0.000139898
0.000140607
0.000141302
0.000141985
0.000142654
0.000143311
0.000143957
0.000144591
0.000145214
0.000145826
0.000146427
0.000147018
0.000147599
0.000148171
0.000148732
0.000149284
0.000149827
0.000150361
0.000150885
0.000151401
0.000151908
0.000152406
0.000152896
0.000153377
0.00015385
0.000154314
0.00015477
0.000155218
0.000155657
0.000156089
0.000156512
0.000156927
0.000157334
0.000157733
0.000158123
0.000158506
0.00015888
0.000159246
0.000159604
0.000159954
0.000160296
0.000160629
0.000160954
0.000161271
0.000161579
0.000161879
0.00016217
0.000162453
0.000162727
0.000162992
0.000163248
0.000163496
0.000163735
0.000163964
0.000164185
0.000164396
0.000164598
0.000164791
0.000164974
0.000165147
0.000165311
0.000165465
0.000165609
0.000165742
0.000165866
0.000165978
0.000166081
0.000166173
0.000166253
0.000166323
0.000166382
0.000166429
0.000166465
0.000166489
0.000166501
1.93083e-05
1.75127e-05
2.27424e-05
3.51668e-05
5.18444e-05
6.89593e-05
8.46325e-05
9.84184e-05
0.000110398
0.000120795
0.000129844
0.000137762
0.000144732
0.000150907
0.000156412
0.000161349
0.000165804
0.000169846
0.000173532
0.00017691
0.00018002
0.000182896
0.000185566
0.000188055
0.000190383
0.000192568
0.000194625
0.000196568
0.000198409
0.000200157
0.000201821
0.000203409
0.000204929
0.000206386
0.000207785
0.000209132
0.000210431
0.000211685
0.000212898
0.000214073
0.000215214
0.000216321
0.000217398
0.000218447
0.00021947
0.000220467
0.000221441
0.000222394
0.000223325
0.000224237
0.00022513
0.000226006
0.000226864
0.000227707
0.000228534
0.000229346
0.000230145
0.000230929
0.000231701
0.000232459
0.000233206
0.00023394
0.000234662
0.000235373
0.000236073
0.000236762
0.000237441
0.000238108
0.000238766
0.000239413
0.00024005
0.000240677
0.000241294
0.000241901
0.000242498
0.000243086
0.000243664
0.000244232
0.00024479
0.000245339
0.000245879
0.000246408
0.000246928
0.000247438
0.000247939
0.000248429
0.00024891
0.000249381
0.000249842
0.000250293
0.000250734
0.000251164
0.000251584
0.000251994
0.000252394
0.000252783
0.000253161
0.000253528
0.000253885
0.00025423
0.000254565
0.000254888
0.000255199
0.000255499
0.000255788
0.000256064
0.000256329
0.000256581
0.000256821
0.000257048
0.000257263
0.000257465
0.000257654
0.00025783
0.000257992
0.000258141
0.000258275
0.000258396
0.000258503
0.000258594
0.000258672
0.000258734
0.000258781
0.000258813
0.000258829
2.10859e-05
1.90504e-05
2.59074e-05
4.34976e-05
6.89593e-05
9.61786e-05
0.000121377
0.000143443
0.000162424
0.000178701
0.000192696
0.000204787
0.000215293
0.000224477
0.000232553
0.000239695
0.000246046
0.000251724
0.000256825
0.00026143
0.000265607
0.000269411
0.00027289
0.000276086
0.000279032
0.000281758
0.00028429
0.00028665
0.000288856
0.000290926
0.000292875
0.000294714
0.000296455
0.000298107
0.000299681
0.000301182
0.000302618
0.000303996
0.00030532
0.000306595
0.000307825
0.000309015
0.000310167
0.000311285
0.000312372
0.00031343
0.000314461
0.000315467
0.00031645
0.000317412
0.000318353
0.000319276
0.000320181
0.00032107
0.000321944
0.000322802
0.000323647
0.000324478
0.000325296
0.000326103
0.000326897
0.000327681
0.000328453
0.000329215
0.000329966
0.000330708
0.000331439
0.000332161
0.000332873
0.000333576
0.00033427
0.000334954
0.000335629
0.000336295
0.000336951
0.000337599
0.000338237
0.000338866
0.000339486
0.000340096
0.000340697
0.000341289
0.00034187
0.000342443
0.000343005
0.000343558
0.0003441
0.000344633
0.000345155
0.000345667
0.000346168
0.000346659
0.000347138
0.000347607
0.000348064
0.00034851
0.000348944
0.000349367
0.000349777
0.000350176
0.000350562
0.000350935
0.000351296
0.000351644
0.000351979
0.0003523
0.000352607
0.000352901
0.000353181
0.000353446
0.000353697
0.000353933
0.000354153
0.000354359
0.000354549
0.000354723
0.00035488
0.000355022
0.000355147
0.000355255
0.000355345
0.000355418
0.000355474
0.000355511
0.00035553
2.27229e-05
2.05779e-05
2.90195e-05
5.1254e-05
8.46325e-05
0.000121377
0.000156054
0.000186755
0.000213308
0.000236125
0.000255735
0.000272641
0.000287278
0.000300009
0.000311134
0.0003209
0.000329511
0.000337136
0.000343916
0.000349969
0.000355392
0.00036027
0.000364673
0.000368662
0.000372288
0.000375595
0.000378621
0.0003814
0.000383961
0.000386328
0.000388523
0.000390566
0.000392472
0.000394258
0.000395935
0.000397516
0.00039901
0.000400427
0.000401774
0.000403059
0.000404288
0.000405467
0.0004066
0.000407692
0.000408747
0.000409769
0.000410761
0.000411725
0.000412665
0.000413582
0.000414478
0.000415356
0.000416216
0.000417061
0.000417891
0.000418708
0.000419513
0.000420306
0.000421089
0.000421861
0.000422625
0.000423379
0.000424125
0.000424862
0.000425592
0.000426315
0.00042703
0.000427737
0.000428438
0.000429132
0.000429819
0.000430499
0.000431172
0.000431839
0.000432498
0.00043315
0.000433795
0.000434433
0.000435064
0.000435687
0.000436302
0.00043691
0.000437509
0.000438101
0.000438683
0.000439258
0.000439823
0.000440379
0.000440926
0.000441464
0.000441991
0.000442509
0.000443016
0.000443513
0.000443999
0.000444473
0.000444937
0.000445388
0.000445828
0.000446256
0.000446671
0.000447073
0.000447462
0.000447838
0.0004482
0.000448548
0.000448881
0.0004492
0.000449504
0.000449793
0.000450066
0.000450324
0.000450565
0.000450789
0.000450997
0.000451187
0.00045136
0.000451515
0.000451652
0.000451771
0.00045187
0.000451951
0.000452011
0.000452052
0.000452073
2.42086e-05
2.20232e-05
3.19712e-05
5.82938e-05
9.84184e-05
0.000143443
0.000186755
0.00022572
0.000259841
0.000289431
0.000315032
0.000337204
0.000356454
0.000373218
0.000387864
0.000400702
0.00041199
0.000421946
0.000430753
0.000438566
0.000445517
0.000451716
0.000457259
0.000462229
0.000466696
0.000470721
0.000474357
0.00047765
0.000480641
0.000483363
0.000485849
0.000488124
0.000490214
0.000492137
0.000493914
0.000495561
0.000497092
0.000498519
0.000499855
0.000501109
0.000502291
0.000503408
0.000504468
0.000505477
0.000506441
0.000507365
0.000508254
0.000509111
0.00050994
0.000510744
0.000511527
0.00051229
0.000513036
0.000513767
0.000514485
0.000515192
0.000515887
0.000516574
0.000517253
0.000517925
0.00051859
0.00051925
0.000519904
0.000520554
0.0005212
0.000521842
0.00052248
0.000523114
0.000523746
0.000524374
0.000524998
0.00052562
0.000526238
0.000526853
0.000527464
0.000528072
0.000528676
0.000529276
0.000529871
0.000530463
0.000531049
0.00053163
0.000532207
0.000532777
0.000533342
0.0005339
0.000534452
0.000534997
0.000535535
0.000536066
0.000536588
0.000537102
0.000537607
0.000538104
0.000538591
0.000539068
0.000539535
0.000539991
0.000540437
0.000540871
0.000541294
0.000541704
0.000542102
0.000542486
0.000542858
0.000543216
0.000543559
0.000543888
0.000544203
0.000544501
0.000544784
0.000545051
0.000545302
0.000545535
0.000545752
0.00054595
0.000546131
0.000546293
0.000546436
0.000546559
0.000546663
0.000546747
0.000546811
0.000546854
0.000546875
2.55497e-05
2.33575e-05
3.47082e-05
6.46066e-05
0.000110398
0.000162424
0.000213308
0.000259841
0.000301175
0.000337447
0.000369138
0.000396803
0.000420975
0.000442128
0.000460676
0.000476975
0.000491325
0.000503986
0.000515178
0.000525087
0.000533878
0.000541688
0.000548637
0.00055483
0.000560357
0.000565296
0.000569716
0.000573678
0.000577233
0.000580429
0.000583306
0.0005859
0.000588243
0.000590364
0.000592286
0.000594034
0.000595625
0.000597079
0.00059841
0.000599632
0.000600759
0.000601801
0.000602769
0.00060367
0.000604513
0.000605306
0.000606054
0.000606763
0.000607438
0.000608085
0.000608705
0.000609305
0.000609886
0.000610451
0.000611003
0.000611545
0.000612077
0.000612602
0.000613122
0.000613637
0.000614149
0.000614658
0.000615166
0.000615673
0.00061618
0.000616687
0.000617195
0.000617704
0.000618213
0.000618724
0.000619236
0.000619749
0.000620264
0.000620779
0.000621296
0.000621813
0.00062233
0.000622848
0.000623365
0.000623883
0.000624399
0.000624914
0.000625428
0.00062594
0.00062645
0.000626957
0.000627461
0.000627961
0.000628457
0.000628948
0.000629434
0.000629915
0.00063039
0.000630858
0.000631319
0.000631773
0.000632219
0.000632656
0.000633084
0.000633503
0.000633911
0.000634309
0.000634696
0.000635072
0.000635435
0.000635786
0.000636123
0.000636447
0.000636757
0.000637053
0.000637333
0.000637598
0.000637847
0.00063808
0.000638295
0.000638493
0.000638673
0.000638835
0.000638978
0.000639102
0.000639207
0.000639291
0.000639354
0.000639397
0.000639419
2.67599e-05
2.45762e-05
3.72169e-05
7.02412e-05
0.000120795
0.000178701
0.000236125
0.000289431
0.000337447
0.000380108
0.000417782
0.000450973
0.000480203
0.000505957
0.000528669
0.000548721
0.000566445
0.000582129
0.000596023
0.000608343
0.000619276
0.000628987
0.000637617
0.000645291
0.000652118
0.000658195
0.000663605
0.000668423
0.000672715
0.000676539
0.000679946
0.000682983
0.00068569
0.000688103
0.000690255
0.000692175
0.000693888
0.000695418
0.000696785
0.000698008
0.000699103
0.000700086
0.000700969
0.000701765
0.000702484
0.000703136
0.00070373
0.000704273
0.000704773
0.000705235
0.000705666
0.000706069
0.00070645
0.000706813
0.000707161
0.000707497
0.000707823
0.000708144
0.000708459
0.000708773
0.000709085
0.000709398
0.000709712
0.000710029
0.00071035
0.000710675
0.000711005
0.00071134
0.000711681
0.000712028
0.000712382
0.000712741
0.000713106
0.000713478
0.000713855
0.000714238
0.000714627
0.00071502
0.000715419
0.000715822
0.000716229
0.00071664
0.000717054
0.00071747
0.000717889
0.000718309
0.000718731
0.000719153
0.000719574
0.000719995
0.000720415
0.000720833
0.000721249
0.000721661
0.00072207
0.000722474
0.000722874
0.000723267
0.000723655
0.000724036
0.000724409
0.000724774
0.000725131
0.000725478
0.000725815
0.000726142
0.000726457
0.000726761
0.000727052
0.000727331
0.000727596
0.000727847
0.000728083
0.000728304
0.000728509
0.000728698
0.00072887
0.000729025
0.000729162
0.000729281
0.000729381
0.000729462
0.000729523
0.000729564
0.000729585
2.78549e-05
2.56861e-05
3.95065e-05
7.52705e-05
0.000129844
0.000192696
0.000255735
0.000315032
0.000369138
0.000417782
0.000461195
0.000499805
0.000534093
0.00056453
0.00059155
0.000615548
0.00063687
0.000655823
0.00067268
0.000687675
0.000701019
0.000712895
0.000723464
0.000732869
0.000741237
0.000748679
0.000755294
0.000761171
0.000766387
0.000771014
0.000775113
0.000778741
0.000781946
0.000784775
0.000787267
0.000789458
0.00079138
0.000793064
0.000794534
0.000795815
0.000796928
0.000797892
0.000798725
0.000799441
0.000800055
0.00080058
0.000801027
0.000801406
0.000801727
0.000801997
0.000802225
0.000802417
0.000802579
0.000802717
0.000802835
0.000802938
0.000803029
0.000803113
0.000803191
0.000803267
0.000803343
0.000803421
0.000803503
0.000803591
0.000803685
0.000803787
0.000803898
0.000804019
0.000804149
0.000804291
0.000804443
0.000804606
0.000804781
0.000804967
0.000805165
0.000805374
0.000805593
0.000805823
0.000806064
0.000806314
0.000806574
0.000806843
0.000807121
0.000807406
0.000807699
0.000807998
0.000808303
0.000808614
0.00080893
0.00080925
0.000809573
0.000809899
0.000810226
0.000810555
0.000810884
0.000811213
0.000811541
0.000811868
0.000812191
0.000812512
0.000812828
0.00081314
0.000813446
0.000813745
0.000814038
0.000814324
0.0008146
0.000814868
0.000815126
0.000815373
0.00081561
0.000815834
0.000816046
0.000816245
0.00081643
0.000816601
0.000816757
0.000816898
0.000817023
0.000817131
0.000817222
0.000817296
0.000817352
0.00081739
0.000817409
2.88496e-05
2.6698e-05
4.15967e-05
7.97724e-05
0.000137762
0.000204787
0.000272641
0.000337204
0.000396803
0.000450973
0.000499805
0.000543633
0.000582877
0.000617978
0.000649355
0.000677398
0.000702458
0.000724854
0.000744868
0.00076275
0.000778726
0.000792993
0.00080573
0.000817093
0.000827224
0.000836249
0.000844279
0.000851415
0.000857748
0.000863359
0.000868321
0.0008727
0.000876553
0.000879936
0.000882895
0.000885475
0.000887714
0.000889648
0.00089131
0.000892727
0.000893928
0.000894934
0.000895769
0.000896451
0.000896999
0.000897428
0.000897754
0.000897988
0.000898144
0.000898231
0.000898261
0.000898241
0.000898179
0.000898084
0.00089796
0.000897815
0.000897652
0.000897478
0.000897296
0.000897109
0.000896922
0.000896736
0.000896555
0.000896381
0.000896216
0.000896061
0.000895917
0.000895787
0.000895671
0.00089557
0.000895484
0.000895414
0.000895361
0.000895324
0.000895304
0.0008953
0.000895313
0.000895343
0.000895388
0.00089545
0.000895526
0.000895618
0.000895724
0.000895843
0.000895976
0.000896121
0.000896278
0.000896446
0.000896624
0.000896812
0.000897008
0.000897212
0.000897424
0.000897642
0.000897865
0.000898092
0.000898324
0.000898558
0.000898794
0.000899031
0.000899269
0.000899506
0.000899741
0.000899974
0.000900204
0.00090043
0.000900651
0.000900867
0.000901076
0.000901278
0.000901472
0.000901658
0.000901834
0.000902
0.000902155
0.000902299
0.000902431
0.00090255
0.000902656
0.000902748
0.000902826
0.000902889
0.000902937
0.000902969
0.000902985
2.97574e-05
2.7624e-05
4.35103e-05
8.38203e-05
0.000144732
0.000215293
0.000287278
0.000356454
0.000420975
0.000480203
0.000534093
0.000582877
0.000626908
0.000666579
0.000702284
0.000734397
0.000763266
0.000789209
0.000812513
0.000833438
0.000852217
0.00086906
0.000884156
0.000897673
0.000909765
0.000920569
0.000930208
0.000938795
0.00094643
0.000953204
0.000959199
0.000964492
0.000969149
0.000973232
0.000976796
0.000979893
0.000982568
0.000984864
0.000986818
0.000988466
0.000989838
0.000990965
0.000991871
0.000992581
0.000993117
0.000993498
0.000993743
0.000993868
0.000993888
0.000993816
0.000993665
0.000993447
0.000993171
0.000992846
0.000992481
0.000992084
0.000991662
0.00099122
0.000990764
0.0009903
0.000989831
0.000989361
0.000988895
0.000988435
0.000987984
0.000987544
0.000987118
0.000986707
0.000986313
0.000985938
0.000985581
0.000985245
0.00098493
0.000984636
0.000984364
0.000984114
0.000983886
0.000983681
0.000983497
0.000983335
0.000983194
0.000983074
0.000982975
0.000982895
0.000982835
0.000982794
0.00098277
0.000982764
0.000982774
0.000982799
0.00098284
0.000982894
0.000982961
0.00098304
0.00098313
0.000983231
0.00098334
0.000983458
0.000983583
0.000983714
0.000983851
0.000983992
0.000984136
0.000984283
0.000984431
0.00098458
0.000984728
0.000984875
0.00098502
0.000985162
0.000985301
0.000985434
0.000985562
0.000985684
0.000985799
0.000985907
0.000986006
0.000986096
0.000986176
0.000986246
0.000986306
0.000986354
0.000986391
0.000986416
0.000986429
3.05902e-05
2.8475e-05
4.52692e-05
8.7479e-05
0.000150907
0.000224477
0.000300009
0.000373218
0.000442128
0.000505957
0.00056453
0.000617978
0.000666579
0.000710674
0.00075062
0.00078677
0.000819458
0.000848996
0.00087567
0.000899741
0.000921449
0.000941008
0.000958615
0.000974449
0.00098867
0.00100143
0.00101285
0.00102306
0.00103216
0.00104027
0.00104746
0.00105383
0.00105944
0.00106437
0.00106868
0.00107243
0.00107567
0.00107844
0.0010808
0.00108278
0.00108443
0.00108576
0.00108682
0.00108763
0.00108822
0.00108862
0.00108884
0.0010889
0.00108883
0.00108863
0.00108833
0.00108794
0.00108747
0.00108693
0.00108634
0.0010857
0.00108502
0.00108431
0.00108358
0.00108283
0.00108207
0.00108131
0.00108054
0.00107978
0.00107902
0.00107828
0.00107755
0.00107683
0.00107614
0.00107546
0.00107481
0.00107418
0.00107357
0.00107299
0.00107244
0.00107191
0.00107141
0.00107094
0.00107049
0.00107007
0.00106968
0.00106932
0.00106898
0.00106867
0.00106839
0.00106813
0.0010679
0.00106769
0.0010675
0.00106733
0.00106719
0.00106706
0.00106696
0.00106687
0.0010668
0.00106675
0.00106671
0.00106669
0.00106668
0.00106668
0.0010667
0.00106672
0.00106675
0.00106679
0.00106684
0.00106689
0.00106695
0.00106701
0.00106708
0.00106715
0.00106721
0.00106728
0.00106735
0.00106742
0.00106748
0.00106754
0.0010676
0.00106765
0.0010677
0.00106774
0.00106778
0.00106781
0.00106783
0.00106785
0.00106786
3.13577e-05
2.9261e-05
4.68933e-05
9.08043e-05
0.000156412
0.000232553
0.000311134
0.000387864
0.000460676
0.000528669
0.00059155
0.000649355
0.000702284
0.00075062
0.000794681
0.000834789
0.00087126
0.000904394
0.00093447
0.000961747
0.000986465
0.00100884
0.00102908
0.00104735
0.00106384
0.00107869
0.00109205
0.00110403
0.00111477
0.00112436
0.0011329
0.00114049
0.00114721
0.00115313
0.00115833
0.00116286
0.00116678
0.00117016
0.00117304
0.00117547
0.00117748
0.00117912
0.00118042
0.00118142
0.00118214
0.00118262
0.00118288
0.00118294
0.00118283
0.00118256
0.00118215
0.00118162
0.00118099
0.00118027
0.00117947
0.00117861
0.00117768
0.00117672
0.00117572
0.00117469
0.00117364
0.00117257
0.0011715
0.00117043
0.00116936
0.0011683
0.00116724
0.00116621
0.00116519
0.00116419
0.00116322
0.00116227
0.00116135
0.00116046
0.00115959
0.00115876
0.00115796
0.0011572
0.00115646
0.00115576
0.00115509
0.00115445
0.00115385
0.00115328
0.00115274
0.00115224
0.00115176
0.00115132
0.00115091
0.00115052
0.00115016
0.00114983
0.00114953
0.00114925
0.001149
0.00114877
0.00114856
0.00114837
0.0011482
0.00114805
0.00114792
0.00114781
0.00114771
0.00114762
0.00114755
0.00114749
0.00114744
0.0011474
0.00114737
0.00114735
0.00114733
0.00114732
0.00114732
0.00114732
0.00114732
0.00114732
0.00114733
0.00114734
0.00114735
0.00114736
0.00114737
0.00114737
0.00114738
0.00114738
0.00114738
3.20685e-05
2.99905e-05
4.84e-05
9.38429e-05
0.000161349
0.000239695
0.0003209
0.000400702
0.000476975
0.000548721
0.000615548
0.000677398
0.000734397
0.00078677
0.000834789
0.000878744
0.000918926
0.000955619
0.000989092
0.0010196
0.00104737
0.00107263
0.00109557
0.00111639
0.00113525
0.00115232
0.00116773
0.00118162
0.00119412
0.00120533
0.00121536
0.00122432
0.00123227
0.00123932
0.00124553
0.00125098
0.00125572
0.00125982
0.00126334
0.00126632
0.00126881
0.00127085
0.00127249
0.00127377
0.00127471
0.00127535
0.00127572
0.00127585
0.00127576
0.00127547
0.00127501
0.00127439
0.00127364
0.00127277
0.00127179
0.00127073
0.00126959
0.00126839
0.00126713
0.00126583
0.0012645
0.00126314
0.00126177
0.00126039
0.001259
0.00125761
0.00125623
0.00125486
0.00125351
0.00125218
0.00125086
0.00124958
0.00124832
0.0012471
0.00124591
0.00124475
0.00124362
0.00124254
0.00124149
0.00124047
0.0012395
0.00123857
0.00123767
0.00123681
0.001236
0.00123522
0.00123447
0.00123377
0.0012331
0.00123247
0.00123187
0.00123131
0.00123078
0.00123028
0.00122982
0.00122939
0.00122898
0.0012286
0.00122826
0.00122793
0.00122763
0.00122736
0.00122711
0.00122687
0.00122666
0.00122647
0.0012263
0.00122614
0.001226
0.00122587
0.00122576
0.00122565
0.00122557
0.00122549
0.00122542
0.00122536
0.0012253
0.00122526
0.00122522
0.00122519
0.00122517
0.00122515
0.00122513
0.00122512
0.00122512
3.27296e-05
3.06707e-05
4.9804e-05
9.66341e-05
0.000165804
0.000246046
0.000329511
0.00041199
0.000491325
0.000566445
0.00063687
0.000702458
0.000763266
0.000819458
0.00087126
0.000918926
0.000962721
0.00100291
0.00103974
0.00107346
0.00110431
0.00113248
0.00115819
0.00118161
0.00120293
0.0012223
0.00123987
0.00125578
0.00127015
0.0012831
0.00129474
0.00130518
0.0013145
0.0013228
0.00133015
0.00133663
0.00134231
0.00134725
0.00135152
0.00135517
0.00135824
0.0013608
0.00136288
0.00136452
0.00136577
0.00136666
0.00136722
0.00136748
0.00136748
0.00136724
0.00136678
0.00136613
0.00136531
0.00136434
0.00136323
0.001362
0.00136068
0.00135926
0.00135778
0.00135623
0.00135463
0.00135299
0.00135132
0.00134963
0.00134793
0.00134622
0.00134451
0.0013428
0.00134111
0.00133943
0.00133777
0.00133614
0.00133454
0.00133296
0.00133142
0.00132991
0.00132845
0.00132702
0.00132563
0.00132429
0.00132299
0.00132173
0.00132052
0.00131935
0.00131822
0.00131714
0.00131611
0.00131512
0.00131417
0.00131327
0.0013124
0.00131158
0.00131081
0.00131007
0.00130937
0.00130871
0.00130808
0.00130749
0.00130694
0.00130642
0.00130593
0.00130548
0.00130505
0.00130466
0.00130429
0.00130395
0.00130363
0.00130334
0.00130307
0.00130282
0.00130259
0.00130239
0.0013022
0.00130203
0.00130188
0.00130174
0.00130162
0.00130152
0.00130143
0.00130135
0.00130128
0.00130123
0.0013012
0.00130117
0.00130116
3.33468e-05
3.13076e-05
5.1118e-05
9.92108e-05
0.000169846
0.000251724
0.000337136
0.000421946
0.000503986
0.000582129
0.000655823
0.000724854
0.000789209
0.000848996
0.000904394
0.000955619
0.00100291
0.0010465
0.00108663
0.00112354
0.00115744
0.00118853
0.00121703
0.0012431
0.00126693
0.00128867
0.00130848
0.00132649
0.00134283
0.00135762
0.00137098
0.00138301
0.00139381
0.00140347
0.00141208
0.00141971
0.00142643
0.00143233
0.00143746
0.00144187
0.00144564
0.00144881
0.00145142
0.00145353
0.00145517
0.0014564
0.00145723
0.00145771
0.00145788
0.00145775
0.00145736
0.00145674
0.0014559
0.00145487
0.00145368
0.00145233
0.00145086
0.00144927
0.00144759
0.00144582
0.00144397
0.00144208
0.00144013
0.00143815
0.00143614
0.00143411
0.00143207
0.00143003
0.001428
0.00142597
0.00142396
0.00142197
0.00142001
0.00141807
0.00141617
0.00141431
0.00141248
0.0014107
0.00140895
0.00140726
0.00140561
0.00140401
0.00140245
0.00140095
0.0013995
0.0013981
0.00139674
0.00139544
0.00139419
0.00139299
0.00139184
0.00139074
0.00138969
0.00138869
0.00138773
0.00138682
0.00138595
0.00138513
0.00138435
0.00138361
0.00138292
0.00138226
0.00138164
0.00138106
0.00138051
0.00138
0.00137953
0.00137908
0.00137867
0.00137829
0.00137793
0.00137761
0.00137731
0.00137704
0.00137679
0.00137657
0.00137638
0.0013762
0.00137605
0.00137592
0.00137581
0.00137573
0.00137566
0.00137562
0.0013756
3.39251e-05
3.19063e-05
5.23525e-05
0.0001016
0.000173532
0.000256825
0.000343916
0.000430753
0.000515178
0.000596023
0.00067268
0.000744868
0.000812513
0.00087567
0.00093447
0.000989092
0.00103974
0.00108663
0.00112999
0.00117002
0.00120694
0.00124095
0.00127223
0.00130098
0.00132735
0.00135151
0.00137361
0.00139378
0.00141216
0.00142888
0.00144404
0.00145776
0.00147013
0.00148126
0.00149122
0.0015001
0.00150798
0.00151493
0.00152102
0.00152632
0.00153088
0.00153475
0.001538
0.00154066
0.0015428
0.00154444
0.00154563
0.00154641
0.00154682
0.00154688
0.00154663
0.00154609
0.0015453
0.00154428
0.00154305
0.00154164
0.00154006
0.00153834
0.00153649
0.00153453
0.00153248
0.00153035
0.00152814
0.00152589
0.00152359
0.00152126
0.00151891
0.00151654
0.00151417
0.0015118
0.00150943
0.00150709
0.00150476
0.00150246
0.00150019
0.00149795
0.00149576
0.0014936
0.00149149
0.00148943
0.00148741
0.00148545
0.00148354
0.00148168
0.00147988
0.00147814
0.00147645
0.00147482
0.00147324
0.00147172
0.00147026
0.00146886
0.00146751
0.00146622
0.00146498
0.00146379
0.00146266
0.00146159
0.00146056
0.00145958
0.00145866
0.00145778
0.00145695
0.00145616
0.00145543
0.00145473
0.00145408
0.00145346
0.00145289
0.00145236
0.00145187
0.00145141
0.00145099
0.0014506
0.00145025
0.00144994
0.00144965
0.0014494
0.00144918
0.00144899
0.00144884
0.00144871
0.00144862
0.00144856
0.00144852
3.44689e-05
3.24711e-05
5.35166e-05
0.000103826
0.00017691
0.00026143
0.000349969
0.000438566
0.000525087
0.000608343
0.000687675
0.00076275
0.000833438
0.000899741
0.000961747
0.0010196
0.00107346
0.00112354
0.00117002
0.00121311
0.001253
0.00128988
0.00132394
0.00135535
0.00138428
0.00141089
0.00143532
0.00145771
0.00147819
0.0014969
0.00151394
0.00152942
0.00154345
0.00155612
0.00156753
0.00157775
0.00158688
0.00159499
0.00160214
0.0016084
0.00161385
0.00161852
0.0016225
0.00162581
0.00162852
0.00163067
0.00163231
0.00163347
0.00163419
0.00163451
0.00163447
0.0016341
0.00163342
0.00163246
0.00163126
0.00162983
0.0016282
0.00162639
0.00162442
0.00162231
0.00162008
0.00161774
0.00161532
0.00161281
0.00161025
0.00160763
0.00160498
0.0016023
0.0015996
0.00159689
0.00159418
0.00159148
0.00158879
0.00158612
0.00158348
0.00158087
0.0015783
0.00157576
0.00157327
0.00157083
0.00156844
0.0015661
0.00156381
0.00156159
0.00155942
0.00155732
0.00155527
0.00155329
0.00155137
0.00154951
0.00154772
0.00154599
0.00154433
0.00154273
0.00154119
0.00153971
0.0015383
0.00153694
0.00153565
0.00153441
0.00153324
0.00153212
0.00153106
0.00153005
0.0015291
0.0015282
0.00152735
0.00152656
0.00152581
0.00152512
0.00152447
0.00152387
0.00152331
0.0015228
0.00152233
0.00152191
0.00152153
0.0015212
0.0015209
0.00152065
0.00152044
0.00152027
0.00152014
0.00152006
0.00152002
3.49816e-05
3.30057e-05
5.46179e-05
0.000105907
0.00018002
0.000265607
0.000355392
0.000445517
0.000533878
0.000619276
0.000701019
0.000778726
0.000852217
0.000921449