/*--------------------------------*- C++ -*----------------------------------*\
| =========                 |                                                 |
| \\      /  F ield         | OpenFOAM: The Open Source CFD Toolbox           |
|  \\    /   O peration     | Version:  4.x                                   |
|   \\  /    A nd           | Web:      www.OpenFOAM.org                      |
|    \\/     M anipulation  |                                                 |
\*---------------------------------------------------------------------------*/
FoamFile
{
    version     2.0;
    format      ascii;
    class       volScalarField;
    location    "98.61";
    object      p;
}
// * * * * * * * * * * * * * * * * * * * * * * * * * * * * * * * * * * * * * //

dimensions      [0 2 -2 0 0 0 0];

internalField   nonuniform List<scalar> 
15625
(
2.14578e-16
4.96883e-16
5.55917e-16
5.67258e-16
5.75109e-16
5.80122e-16
5.82935e-16
5.84747e-16
5.86084e-16
5.87169e-16
5.88076e-16
5.88855e-16
5.89541e-16
5.90143e-16
5.90671e-16
5.91188e-16
5.91615e-16
5.92045e-16
5.92437e-16
5.92813e-16
5.93184e-16
5.93544e-16
5.93892e-16
5.94249e-16
5.94559e-16
5.94865e-16
5.95189e-16
5.95517e-16
5.95854e-16
5.96154e-16
5.96479e-16
5.96788e-16
5.97106e-16
5.97426e-16
5.97777e-16
5.98078e-16
5.98395e-16
5.98724e-16
5.99027e-16
5.99318e-16
5.99628e-16
5.99939e-16
6.00211e-16
6.00497e-16
6.00798e-16
6.01063e-16
6.01313e-16
6.01552e-16
6.01778e-16
6.0204e-16
6.02269e-16
6.02437e-16
6.02621e-16
6.0282e-16
6.03031e-16
6.0324e-16
6.03399e-16
6.0354e-16
6.03665e-16
6.03785e-16
6.03911e-16
6.04055e-16
6.04186e-16
6.04286e-16
6.04373e-16
6.04469e-16
6.04545e-16
6.0468e-16
6.04732e-16
6.04785e-16
6.04804e-16
6.04832e-16
6.04847e-16
6.04822e-16
6.04872e-16
6.04936e-16
6.04943e-16
6.04904e-16
6.04824e-16
6.04806e-16
6.04848e-16
6.04859e-16
6.04902e-16
6.04909e-16
6.0489e-16
6.04884e-16
6.04925e-16
6.04896e-16
6.04852e-16
6.04819e-16
6.04772e-16
6.04746e-16
6.04702e-16
6.04648e-16
6.04638e-16
6.04717e-16
6.04619e-16
6.04495e-16
6.04481e-16
6.04461e-16
6.0445e-16
6.04437e-16
6.04391e-16
6.04328e-16
6.04345e-16
6.04412e-16
6.04486e-16
6.04614e-16
6.04709e-16
6.04868e-16
6.0497e-16
6.05188e-16
6.05356e-16
6.0543e-16
6.0553e-16
6.05611e-16
6.05815e-16
6.05946e-16
6.05939e-16
6.0602e-16
6.06056e-16
6.06097e-16
6.06039e-16
6.0608e-16
6.06001e-16
4.96867e-16
5.45777e-16
5.62558e-16
5.69184e-16
5.74736e-16
5.78906e-16
5.81759e-16
5.83797e-16
5.85335e-16
5.86606e-16
5.8765e-16
5.88503e-16
5.89249e-16
5.89903e-16
5.90492e-16
5.91009e-16
5.91462e-16
5.91911e-16
5.92364e-16
5.92732e-16
5.93109e-16
5.93464e-16
5.93811e-16
5.94136e-16
5.94482e-16
5.94826e-16
5.95153e-16
5.95471e-16
5.95824e-16
5.96124e-16
5.96438e-16
5.96747e-16
5.97058e-16
5.9739e-16
5.97744e-16
5.98053e-16
5.98379e-16
5.98739e-16
5.99014e-16
5.99283e-16
5.99598e-16
5.99925e-16
6.00189e-16
6.00482e-16
6.00784e-16
6.01075e-16
6.01307e-16
6.01559e-16
6.01797e-16
6.02037e-16
6.02245e-16
6.02401e-16
6.02618e-16
6.02819e-16
6.03011e-16
6.03189e-16
6.0337e-16
6.03523e-16
6.03646e-16
6.03772e-16
6.03895e-16
6.04039e-16
6.04165e-16
6.04288e-16
6.04366e-16
6.0447e-16
6.04533e-16
6.04691e-16
6.04722e-16
6.04776e-16
6.048e-16
6.04843e-16
6.04863e-16
6.04823e-16
6.0488e-16
6.04963e-16
6.04934e-16
6.04925e-16
6.0486e-16
6.04821e-16
6.04854e-16
6.04854e-16
6.04905e-16
6.04895e-16
6.04915e-16
6.0493e-16
6.04924e-16
6.04896e-16
6.04836e-16
6.04827e-16
6.04756e-16
6.04746e-16
6.04713e-16
6.04635e-16
6.04664e-16
6.04679e-16
6.04562e-16
6.04476e-16
6.04481e-16
6.04472e-16
6.04455e-16
6.04419e-16
6.04394e-16
6.04292e-16
6.04329e-16
6.04428e-16
6.04452e-16
6.04628e-16
6.04756e-16
6.0487e-16
6.04977e-16
6.05233e-16
6.05344e-16
6.05375e-16
6.05524e-16
6.05611e-16
6.0582e-16
6.05958e-16
6.05981e-16
6.06079e-16
6.0608e-16
6.06073e-16
6.06047e-16
6.06084e-16
6.06003e-16
5.55876e-16
5.62539e-16
5.65807e-16
5.70033e-16
5.74385e-16
5.78e-16
5.80791e-16
5.82948e-16
5.84655e-16
5.86022e-16
5.87158e-16
5.88128e-16
5.88899e-16
5.89608e-16
5.90219e-16
5.90781e-16
5.91229e-16
5.91703e-16
5.92199e-16
5.92596e-16
5.93002e-16
5.93372e-16
5.93726e-16
5.94061e-16
5.94429e-16
5.94776e-16
5.9511e-16
5.95398e-16
5.95726e-16
5.96035e-16
5.96347e-16
5.96651e-16
5.96973e-16
5.97304e-16
5.97673e-16
5.98046e-16
5.98347e-16
5.98734e-16
5.98987e-16
5.99274e-16
5.99546e-16
5.99852e-16
6.00151e-16
6.00461e-16
6.00787e-16
6.01066e-16
6.01313e-16
6.01541e-16
6.01777e-16
6.02044e-16
6.02245e-16
6.02427e-16
6.02642e-16
6.0281e-16
6.02971e-16
6.03213e-16
6.03349e-16
6.03523e-16
6.03713e-16
6.03811e-16
6.03907e-16
6.04077e-16
6.04199e-16
6.04284e-16
6.04376e-16
6.04475e-16
6.04579e-16
6.04683e-16
6.04746e-16
6.04809e-16
6.04815e-16
6.04757e-16
6.04904e-16
6.04848e-16
6.0487e-16
6.04972e-16
6.04956e-16
6.04908e-16
6.0486e-16
6.04772e-16
6.04773e-16
6.04844e-16
6.04947e-16
6.04884e-16
6.04883e-16
6.04956e-16
6.04956e-16
6.04962e-16
6.04896e-16
6.04817e-16
6.04759e-16
6.04769e-16
6.04771e-16
6.0462e-16
6.04686e-16
6.04638e-16
6.04548e-16
6.04462e-16
6.04467e-16
6.04438e-16
6.04377e-16
6.04458e-16
6.04412e-16
6.04342e-16
6.04425e-16
6.04525e-16
6.04413e-16
6.04645e-16
6.04828e-16
6.04885e-16
6.05001e-16
6.05223e-16
6.05387e-16
6.0537e-16
6.05583e-16
6.0565e-16
6.05817e-16
6.05993e-16
6.06071e-16
6.061e-16
6.06147e-16
6.061e-16
6.0607e-16
6.0613e-16
6.06012e-16
5.67187e-16
5.69143e-16
5.70037e-16
5.72283e-16
5.751e-16
5.77861e-16
5.803e-16
5.82362e-16
5.84044e-16
5.85452e-16
5.86634e-16
5.87669e-16
5.88531e-16
5.89336e-16
5.89961e-16
5.90551e-16
5.90962e-16
5.91481e-16
5.92071e-16
5.92374e-16
5.92789e-16
5.93205e-16
5.93559e-16
5.93964e-16
5.94401e-16
5.94671e-16
5.95043e-16
5.95355e-16
5.95602e-16
5.9588e-16
5.96175e-16
5.96574e-16
5.97082e-16
5.97227e-16
5.97566e-16
5.98097e-16
5.98265e-16
5.98619e-16
5.98905e-16
5.99368e-16
5.99556e-16
5.99892e-16
6.0019e-16
6.00384e-16
6.00754e-16
6.01114e-16
6.01213e-16
6.01466e-16
6.01705e-16
6.02074e-16
6.02255e-16
6.02374e-16
6.02632e-16
6.02738e-16
6.02987e-16
6.03285e-16
6.03463e-16
6.03531e-16
6.03708e-16
6.03855e-16
6.03879e-16
6.04153e-16
6.04262e-16
6.04236e-16
6.04322e-16
6.04661e-16
6.04744e-16
6.04729e-16
6.04825e-16
6.05039e-16
6.04807e-16
6.04653e-16
6.04863e-16
6.04974e-16
6.04809e-16
6.0483e-16
6.04847e-16
6.04912e-16
6.04693e-16
6.0474e-16
6.0474e-16
6.04779e-16
6.0496e-16
6.04904e-16
6.0481e-16
6.04842e-16
6.05089e-16
6.05043e-16
6.04894e-16
6.0481e-16
6.0486e-16
6.04839e-16
6.04741e-16
6.04623e-16
6.04742e-16
6.04643e-16
6.04586e-16
6.04475e-16
6.04542e-16
6.04382e-16
6.04347e-16
6.04486e-16
6.04309e-16
6.04433e-16
6.0434e-16
6.04344e-16
6.04332e-16
6.04629e-16
6.048e-16
6.04907e-16
6.05051e-16
6.05176e-16
6.05346e-16
6.05264e-16
6.05574e-16
6.05725e-16
6.05924e-16
6.06095e-16
6.06143e-16
6.06006e-16
6.06167e-16
6.06098e-16
6.06073e-16
6.06301e-16
6.06033e-16
5.75001e-16
5.74654e-16
5.74328e-16
5.75069e-16
5.76508e-16
5.78336e-16
5.80225e-16
5.81991e-16
5.83548e-16
5.84857e-16
5.86154e-16
5.87161e-16
5.88067e-16
5.88888e-16
5.89649e-16
5.90219e-16
5.9076e-16
5.91323e-16
5.91751e-16
5.92099e-16
5.92591e-16
5.92995e-16
5.93306e-16
5.93942e-16
5.94208e-16
5.94552e-16
5.94833e-16
5.95202e-16
5.95604e-16
5.95885e-16
5.9618e-16
5.96547e-16
5.97101e-16
5.97188e-16
5.97465e-16
5.97919e-16
5.98216e-16
5.98495e-16
5.98812e-16
5.99272e-16
5.99519e-16
5.99919e-16
6.00203e-16
6.00295e-16
6.00768e-16
6.01021e-16
6.01301e-16
6.01508e-16
6.01821e-16
6.01968e-16
6.02278e-16
6.02295e-16
6.02608e-16
6.02938e-16
6.02947e-16
6.03199e-16
6.03295e-16
6.03518e-16
6.03796e-16
6.03831e-16
6.03891e-16
6.04102e-16
6.0427e-16
6.04305e-16
6.04343e-16
6.04612e-16
6.04392e-16
6.0477e-16
6.04857e-16
6.04866e-16
6.04852e-16
6.04823e-16
6.04814e-16
6.04867e-16
6.04893e-16
6.0492e-16
6.0482e-16
6.05107e-16
6.04952e-16
6.0485e-16
6.04891e-16
6.04831e-16
6.04799e-16
6.04941e-16
6.04871e-16
6.04605e-16
6.05011e-16
6.04951e-16
6.04861e-16
6.0494e-16
6.04863e-16
6.04815e-16
6.0481e-16
6.04816e-16
6.04738e-16
6.04753e-16
6.04839e-16
6.04582e-16
6.04416e-16
6.04226e-16
6.0444e-16
6.04383e-16
6.04322e-16
6.04416e-16
6.04408e-16
6.04412e-16
6.04471e-16
6.04721e-16
6.04515e-16
6.04919e-16
6.05193e-16
6.05174e-16
6.05444e-16
6.05379e-16
6.05584e-16
6.05641e-16
6.05845e-16
6.06014e-16
6.06003e-16
6.06056e-16
6.06206e-16
6.06016e-16
6.05967e-16
6.06053e-16
6.05783e-16
5.79972e-16
5.78785e-16
5.77894e-16
5.77788e-16
5.78301e-16
5.79297e-16
5.80642e-16
5.82065e-16
5.83444e-16
5.84624e-16
5.85767e-16
5.86792e-16
5.87649e-16
5.88339e-16
5.8916e-16
5.89694e-16
5.90418e-16
5.9107e-16
5.91548e-16
5.91935e-16
5.92384e-16
5.92898e-16
5.9336e-16
5.93437e-16
5.94017e-16
5.94314e-16
5.94571e-16
5.95023e-16
5.9552e-16
5.95841e-16
5.96093e-16
5.96403e-16
5.96758e-16
5.96956e-16
5.9738e-16
5.97852e-16
5.98092e-16
5.98203e-16
5.98733e-16
5.99032e-16
5.99467e-16
5.99926e-16
6.0021e-16
6.00253e-16
6.00796e-16
6.00984e-16
6.01523e-16
6.01414e-16
6.01677e-16
6.01995e-16
6.02169e-16
6.02194e-16
6.02498e-16
6.02934e-16
6.02873e-16
6.03248e-16
6.03318e-16
6.03461e-16
6.03676e-16
6.03785e-16
6.03817e-16
6.0418e-16
6.04536e-16
6.04449e-16
6.0448e-16
6.04412e-16
6.04391e-16
6.04684e-16
6.04475e-16
6.04657e-16
6.04853e-16
6.04912e-16
6.04934e-16
6.04909e-16
6.04829e-16
6.0477e-16
6.04814e-16
6.05192e-16
6.0535e-16
6.04866e-16
6.04972e-16
6.0493e-16
6.04884e-16
6.04666e-16
6.04612e-16
6.04722e-16
6.0491e-16
6.04647e-16
6.04746e-16
6.04875e-16
6.04851e-16
6.04877e-16
6.04733e-16
6.04904e-16
6.04692e-16
6.04873e-16
6.04994e-16
6.0492e-16
6.04037e-16
6.04103e-16
6.04397e-16
6.04256e-16
6.04241e-16
6.04352e-16
6.04531e-16
6.044e-16
6.04405e-16
6.04649e-16
6.04345e-16
6.04889e-16
6.04999e-16
6.05162e-16
6.05632e-16
6.05387e-16
6.05567e-16
6.05451e-16
6.06077e-16
6.06299e-16
6.05964e-16
6.06123e-16
6.06397e-16
6.05999e-16
6.06107e-16
6.05983e-16
6.05676e-16
5.82741e-16
5.81589e-16
5.80633e-16
5.80162e-16
5.80133e-16
5.80556e-16
5.8137e-16
5.82379e-16
5.8343e-16
5.84596e-16
5.85609e-16
5.86605e-16
5.87389e-16
5.88126e-16
5.88915e-16
5.89638e-16
5.90172e-16
5.90832e-16
5.91381e-16
5.91769e-16
5.92169e-16
5.92729e-16
5.93099e-16
5.93324e-16
5.9381e-16
5.94113e-16
5.94458e-16
5.9486e-16
5.95298e-16
5.9548e-16
5.9585e-16
5.96243e-16
5.96608e-16
5.96864e-16
5.97148e-16
5.97636e-16
5.9786e-16
5.98409e-16
5.98644e-16
5.99068e-16
5.99381e-16
5.99718e-16
5.99966e-16
6.00334e-16
6.0074e-16
6.00775e-16
6.01245e-16
6.01459e-16
6.0171e-16
6.01959e-16
6.01971e-16
6.02362e-16
6.0267e-16
6.02853e-16
6.02806e-16
6.03113e-16
6.03299e-16
6.03347e-16
6.0351e-16
6.03621e-16
6.03835e-16
6.04068e-16
6.04247e-16
6.04411e-16
6.04774e-16
6.04355e-16
6.04361e-16
6.04711e-16
6.04774e-16
6.04671e-16
6.04858e-16
6.04964e-16
6.04966e-16
6.04586e-16
6.04476e-16
6.04937e-16
6.0497e-16
6.04952e-16
6.053e-16
6.04473e-16
6.05014e-16
6.05239e-16
6.05127e-16
6.04757e-16
6.04833e-16
6.04705e-16
6.04493e-16
6.04725e-16
6.05007e-16
6.04809e-16
6.04748e-16
6.0474e-16
6.04731e-16
6.04826e-16
6.04871e-16
6.0504e-16
6.05201e-16
6.04595e-16
6.04274e-16
6.04522e-16
6.04567e-16
6.04056e-16
6.04048e-16
6.04257e-16
6.041e-16
6.04279e-16
6.04458e-16
6.04694e-16
6.0487e-16
6.04903e-16
6.04651e-16
6.05148e-16
6.05744e-16
6.0571e-16
6.05547e-16
6.05457e-16
6.06003e-16
6.05957e-16
6.06053e-16
6.06172e-16
6.06185e-16
6.06476e-16
6.06442e-16
6.07384e-16
6.06267e-16
5.84508e-16
5.83583e-16
5.82732e-16
5.82132e-16
5.8182e-16
5.81858e-16
5.82329e-16
5.82997e-16
5.8374e-16
5.8479e-16
5.85603e-16
5.86441e-16
5.87218e-16
5.8796e-16
5.88763e-16
5.89436e-16
5.89991e-16
5.90481e-16
5.90987e-16
5.91325e-16
5.91764e-16
5.92311e-16
5.9315e-16
5.93194e-16
5.93502e-16
5.93896e-16
5.94221e-16
5.9469e-16
5.95195e-16
5.95232e-16
5.95493e-16
5.96081e-16
5.96631e-16
5.97272e-16
5.97249e-16
5.97484e-16
5.97751e-16
5.98179e-16
5.9862e-16
5.99085e-16
5.99351e-16
5.99625e-16
6.00084e-16
6.00299e-16
6.00343e-16
6.00625e-16
6.00892e-16
6.01386e-16
6.01649e-16
6.02067e-16
6.01759e-16
6.02326e-16
6.0304e-16
6.02344e-16
6.02769e-16
6.02937e-16
6.03529e-16
6.03661e-16
6.03613e-16
6.0353e-16
6.03582e-16
6.03966e-16
6.04166e-16
6.04504e-16
6.0473e-16
6.04485e-16
6.04716e-16
6.04816e-16
6.0513e-16
6.04454e-16
6.04905e-16
6.04995e-16
6.05034e-16
6.0525e-16
6.04699e-16
6.04417e-16
6.05176e-16
6.05111e-16
6.04979e-16
6.04034e-16
6.04407e-16
6.05247e-16
6.0509e-16
6.05182e-16
6.05173e-16
6.05559e-16
6.04442e-16
6.04649e-16
6.05798e-16
6.04753e-16
6.04605e-16
6.04462e-16
6.0388e-16
6.0503e-16
6.04557e-16
6.04852e-16
6.04896e-16
6.04566e-16
6.04401e-16
6.04312e-16
6.04343e-16
6.04139e-16
6.04251e-16
6.04161e-16
6.04079e-16
6.04616e-16
6.0426e-16
6.04647e-16
6.04587e-16
6.04895e-16
6.04583e-16
6.05223e-16
6.05626e-16
6.05668e-16
6.05503e-16
6.05825e-16
6.05539e-16
6.05737e-16
6.06366e-16
6.0626e-16
6.05972e-16
6.06809e-16
6.06442e-16
6.07692e-16
6.06204e-16
5.85802e-16
5.851e-16
5.84382e-16
5.83823e-16
5.83364e-16
5.83113e-16
5.83383e-16
5.83762e-16
5.84243e-16
5.85046e-16
5.85789e-16
5.86538e-16
5.87274e-16
5.88181e-16
5.88488e-16
5.89138e-16
5.90044e-16
5.90257e-16
5.90757e-16
5.91046e-16
5.91002e-16
5.91503e-16
5.92418e-16
5.93076e-16
5.93273e-16
5.93708e-16
5.93824e-16
5.94463e-16
5.95212e-16
5.95268e-16
5.95717e-16
5.95935e-16
5.96458e-16
5.96773e-16
5.97291e-16
5.97659e-16
5.97992e-16
5.98153e-16
5.98574e-16
5.98889e-16
5.99531e-16
5.99606e-16
5.99926e-16
5.99692e-16
5.99719e-16
6.00245e-16
5.9988e-16
6.00901e-16
6.01254e-16
6.02558e-16
6.01786e-16
6.01967e-16
6.03422e-16
6.02202e-16
6.02781e-16
6.03688e-16
6.03052e-16
6.03612e-16
6.03543e-16
6.03751e-16
6.03378e-16
6.03855e-16
6.04288e-16
6.0437e-16
6.0465e-16
6.04278e-16
6.05005e-16
6.04729e-16
6.04956e-16
6.04798e-16
6.05237e-16
6.05051e-16
6.04918e-16
6.04791e-16
6.05513e-16
6.05154e-16
6.05122e-16
6.0575e-16
6.04912e-16
6.0435e-16
6.0518e-16
6.05223e-16
6.05344e-16
6.05143e-16
6.05039e-16
6.05972e-16
6.04452e-16
6.0486e-16
6.06067e-16
6.05188e-16
6.05073e-16
6.0482e-16
6.0419e-16
6.0514e-16
6.03887e-16
6.04005e-16
6.05283e-16
6.04044e-16
6.04522e-16
6.05317e-16
6.04328e-16
6.03832e-16
6.04414e-16
6.03913e-16
6.0355e-16
6.04344e-16
6.04589e-16
6.04748e-16
6.04678e-16
6.04831e-16
6.04985e-16
6.05526e-16
6.05104e-16
6.05812e-16
6.05294e-16
6.06431e-16
6.0486e-16
6.06365e-16
6.06574e-16
6.06412e-16
6.06155e-16
6.07301e-16
6.06337e-16
6.0677e-16
6.06052e-16
5.86815e-16
5.86272e-16
5.85704e-16
5.85218e-16
5.84791e-16
5.84405e-16
5.84342e-16
5.84578e-16
5.84899e-16
5.8556e-16
5.86285e-16
5.87022e-16
5.87408e-16
5.88078e-16
5.88354e-16
5.88715e-16
5.89686e-16
5.90328e-16
5.90696e-16
5.91041e-16
5.91206e-16
5.91715e-16
5.9234e-16
5.93133e-16
5.93189e-16
5.93782e-16
5.94106e-16
5.94259e-16
5.94932e-16
5.9513e-16
5.95465e-16
5.95815e-16
5.96438e-16
5.97186e-16
5.9706e-16
5.97337e-16
5.97981e-16
5.97925e-16
5.98871e-16
5.99354e-16
6.0001e-16
5.99662e-16
6.00279e-16
5.9999e-16
5.99436e-16
6.00328e-16
6.00943e-16
6.00918e-16
6.01277e-16
6.01795e-16
6.02146e-16
6.02298e-16
6.03284e-16
6.02918e-16
6.03391e-16
6.04311e-16
6.03742e-16
6.04159e-16
6.03852e-16
6.04116e-16
6.03303e-16
6.04402e-16
6.04842e-16
6.04429e-16
6.05252e-16
6.04496e-16
6.04086e-16
6.04358e-16
6.05288e-16
6.05076e-16
6.051e-16
6.05077e-16
6.05483e-16
6.05244e-16
6.05178e-16
6.04718e-16
6.05607e-16
6.05713e-16
6.04705e-16
6.0498e-16
6.0549e-16
6.04596e-16
6.05391e-16
6.05426e-16
6.05889e-16
6.06081e-16
6.04516e-16
6.0493e-16
6.05161e-16
6.04834e-16
6.04455e-16
6.05212e-16
6.0442e-16
6.05304e-16
6.0392e-16
6.04274e-16
6.05034e-16
6.04124e-16
6.04707e-16
6.05027e-16
6.04292e-16
6.03723e-16
6.0484e-16
6.04201e-16
6.04549e-16
6.05178e-16
6.05291e-16
6.05096e-16
6.047e-16
6.04469e-16
6.05011e-16
6.05752e-16
6.0547e-16
6.05931e-16
6.05381e-16
6.05973e-16
6.05965e-16
6.07182e-16
6.06375e-16
6.06605e-16
6.05119e-16
6.07545e-16
6.06207e-16
6.05733e-16
6.05426e-16
5.87653e-16
5.8724e-16
5.86766e-16
5.86283e-16
5.8585e-16
5.85449e-16
5.8533e-16
5.85438e-16
5.85693e-16
5.85897e-16
5.86654e-16
5.87237e-16
5.87663e-16
5.88005e-16
5.88529e-16
5.89014e-16
5.89625e-16
5.90182e-16
5.90823e-16
5.91128e-16
5.91545e-16
5.91693e-16
5.9228e-16
5.92375e-16
5.92299e-16
5.93614e-16
5.94246e-16
5.94405e-16
5.94536e-16
5.94866e-16
5.95177e-16
5.95947e-16
5.96166e-16
5.96466e-16
5.96808e-16
5.97012e-16
5.97888e-16
5.97969e-16
5.98804e-16
5.98993e-16
5.99357e-16
5.99456e-16
6.00334e-16
5.99937e-16
6.00374e-16
6.00746e-16
6.00729e-16
6.00953e-16
6.01175e-16
6.01744e-16
6.01716e-16
6.02252e-16
6.02519e-16
6.02511e-16
6.03011e-16
6.03435e-16
6.03497e-16
6.03665e-16
6.03711e-16
6.0389e-16
6.03567e-16
6.04288e-16
6.04599e-16
6.04147e-16
6.04403e-16
6.04554e-16
6.04236e-16
6.04752e-16
6.05011e-16
6.05041e-16
6.04971e-16
6.04873e-16
6.05311e-16
6.05648e-16
6.04892e-16
6.05079e-16
6.05643e-16
6.05121e-16
6.05336e-16
6.0515e-16
6.05047e-16
6.05184e-16
6.04974e-16
6.05113e-16
6.05356e-16
6.05751e-16
6.05882e-16
6.05285e-16
6.04399e-16
6.04477e-16
6.04642e-16
6.05348e-16
6.04373e-16
6.05119e-16
6.04943e-16
6.04595e-16
6.04528e-16
6.03624e-16
6.04117e-16
6.04768e-16
6.03823e-16
6.04011e-16
6.04751e-16
6.04156e-16
6.04534e-16
6.04408e-16
6.04641e-16
6.04907e-16
6.0467e-16
6.04641e-16
6.04812e-16
6.05877e-16
6.05947e-16
6.05736e-16
6.05106e-16
6.05817e-16
6.06012e-16
6.06546e-16
6.06142e-16
6.0644e-16
6.06105e-16
6.06853e-16
6.06719e-16
6.06436e-16
6.05642e-16
5.88356e-16
5.88026e-16
5.87668e-16
5.87248e-16
5.86768e-16
5.86413e-16
5.86214e-16
5.86197e-16
5.86281e-16
5.86251e-16
5.87055e-16
5.87508e-16
5.87722e-16
5.87763e-16
5.88609e-16
5.89061e-16
5.89624e-16
5.89868e-16
5.90769e-16
5.91221e-16
5.91635e-16
5.91988e-16
5.92491e-16
5.91708e-16
5.92628e-16
5.93151e-16
5.93751e-16
5.94048e-16
5.94115e-16
5.94598e-16
5.94476e-16
5.95669e-16
5.9546e-16
5.95652e-16
5.96649e-16
5.97524e-16
5.9875e-16
5.97598e-16
5.98389e-16
5.98785e-16
5.9916e-16
5.99957e-16
6.00345e-16
5.99902e-16
6.00821e-16
6.00697e-16
6.00499e-16
6.00987e-16
6.00817e-16
6.01779e-16
6.01629e-16
6.02526e-16
6.03458e-16
6.03054e-16
6.02927e-16
6.03123e-16
6.03289e-16
6.03182e-16
6.03318e-16
6.03654e-16
6.04043e-16
6.044e-16
6.05037e-16
6.04493e-16
6.04579e-16
6.04758e-16
6.05349e-16
6.05466e-16
6.05092e-16
6.05057e-16
6.04721e-16
6.0535e-16
6.05178e-16
6.05216e-16
6.0527e-16
6.05279e-16
6.0549e-16
6.0457e-16
6.05034e-16
6.05298e-16
6.0445e-16
6.06215e-16
6.04574e-16
6.04938e-16
6.05593e-16
6.05923e-16
6.05294e-16
6.04924e-16
6.04182e-16
6.05084e-16
6.04412e-16
6.04957e-16
6.04844e-16
6.04276e-16
6.05112e-16
6.04224e-16
6.0371e-16
6.03518e-16
6.04412e-16
6.04692e-16
6.04425e-16
6.03932e-16
6.03844e-16
6.04332e-16
6.04892e-16
6.05295e-16
6.04477e-16
6.05251e-16
6.04383e-16
6.04413e-16
6.05018e-16
6.05814e-16
6.05853e-16
6.05834e-16
6.054e-16
6.05806e-16
6.05952e-16
6.06649e-16
6.05838e-16
6.06288e-16
6.0685e-16
6.06686e-16
6.06345e-16
6.07107e-16
6.06493e-16
5.88958e-16
5.88688e-16
5.88379e-16
5.88025e-16
5.8761e-16
5.8727e-16
5.87007e-16
5.86872e-16
5.86874e-16
5.87069e-16
5.87433e-16
5.87735e-16
5.8814e-16
5.88187e-16
5.88754e-16
5.89294e-16
5.89759e-16
5.89388e-16
5.90189e-16
5.90984e-16
5.91412e-16
5.91411e-16
5.91931e-16
5.92027e-16
5.9276e-16
5.92986e-16
5.93482e-16
5.93865e-16
5.94088e-16
5.94626e-16
5.94941e-16
5.95363e-16
5.95525e-16
5.95452e-16
5.96394e-16
5.96716e-16
5.98189e-16
5.97873e-16
5.98412e-16
5.98747e-16
5.9881e-16
5.99379e-16
5.9992e-16
5.99939e-16
6.00518e-16
6.00525e-16
6.01299e-16
6.00295e-16
6.01146e-16
6.02074e-16
6.01783e-16
6.02809e-16
6.02298e-16
6.02496e-16
6.03094e-16
6.0341e-16
6.03059e-16
6.03722e-16
6.03969e-16
6.04416e-16
6.04127e-16
6.04196e-16
6.03864e-16
6.04205e-16
6.04718e-16
6.04605e-16
6.0556e-16
6.0513e-16
6.04998e-16
6.04966e-16
6.05037e-16
6.06023e-16
6.04931e-16
6.05816e-16
6.0544e-16
6.05125e-16
6.05891e-16
6.05313e-16
6.06061e-16
6.05503e-16
6.04512e-16
6.05785e-16
6.04653e-16
6.0509e-16
6.05522e-16
6.06774e-16
6.05005e-16
6.04702e-16
6.05275e-16
6.05258e-16
6.04332e-16
6.0481e-16
6.05766e-16
6.04303e-16
6.04883e-16
6.0389e-16
6.04418e-16
6.0382e-16
6.037e-16
6.04197e-16
6.04546e-16
6.03485e-16
6.03265e-16
6.04305e-16
6.04558e-16
6.05109e-16
6.04324e-16
6.05427e-16
6.0435e-16
6.04356e-16
6.04976e-16
6.05627e-16
6.06337e-16
6.057e-16
6.05073e-16
6.05683e-16
6.06082e-16
6.06333e-16
6.05993e-16
6.07159e-16
6.06439e-16
6.06908e-16
6.06839e-16
6.08171e-16
6.07011e-16
5.89476e-16
5.89256e-16
5.88996e-16
5.88619e-16
5.88302e-16
5.88132e-16
5.87748e-16
5.874e-16
5.87151e-16
5.87617e-16
5.8808e-16
5.88483e-16
5.88599e-16
5.88583e-16
5.88575e-16
5.8914e-16
5.89828e-16
5.90002e-16
5.90224e-16
5.90896e-16
5.91797e-16
5.91817e-16
5.91518e-16
5.91997e-16
5.92519e-16
5.91934e-16
5.93086e-16
5.93596e-16
5.93787e-16
5.95053e-16
5.95568e-16
5.9525e-16
5.9579e-16
5.96036e-16
5.96831e-16
5.96571e-16
5.98029e-16
5.97895e-16
5.97582e-16
5.98715e-16
5.99019e-16
5.98775e-16
5.99847e-16
6.00541e-16
6.01175e-16
6.01298e-16
6.01207e-16
6.0082e-16
6.01624e-16
6.02876e-16
6.0197e-16
6.01159e-16
6.02314e-16
6.01971e-16
6.03447e-16
6.04134e-16
6.03163e-16
6.04562e-16
6.04052e-16
6.04546e-16
6.03507e-16
6.03566e-16
6.02989e-16
6.04437e-16
6.04912e-16
6.04774e-16
6.04456e-16
6.04599e-16
6.04544e-16
6.03938e-16
6.05186e-16
6.05582e-16
6.04792e-16
6.05421e-16
6.05308e-16
6.05262e-16
6.05623e-16
6.0627e-16
6.05917e-16
6.05672e-16
6.04802e-16
6.05934e-16
6.05547e-16
6.05762e-16
6.06091e-16
6.06277e-16
6.04532e-16
6.051e-16
6.05259e-16
6.05595e-16
6.04859e-16
6.04691e-16
6.04629e-16
6.04425e-16
6.04133e-16
6.04299e-16
6.05634e-16
6.03499e-16
6.04059e-16
6.04174e-16
6.04118e-16
6.04238e-16
6.02386e-16
6.04142e-16
6.0474e-16
6.04745e-16
6.03893e-16
6.0554e-16
6.04947e-16
6.03465e-16
6.05754e-16
6.0622e-16
6.05904e-16
6.04374e-16
6.04737e-16
6.05415e-16
6.06457e-16
6.06186e-16
6.05481e-16
6.08494e-16
6.05434e-16
6.0712e-16
6.06952e-16
6.07357e-16
6.06756e-16
5.89946e-16
5.89767e-16
5.89558e-16
5.89206e-16
5.88779e-16
5.88717e-16
5.8845e-16
5.88293e-16
5.88095e-16
5.88236e-16
5.88371e-16
5.88616e-16
5.89034e-16
5.89478e-16
5.89323e-16
5.89065e-16
5.8979e-16
5.89966e-16
5.90719e-16
5.90608e-16
5.91491e-16
5.91652e-16
5.91953e-16
5.92165e-16
5.91911e-16
5.91975e-16
5.92563e-16
5.93592e-16
5.94343e-16
5.95479e-16
5.94911e-16
5.94627e-16
5.9632e-16
5.96437e-16
5.97038e-16
5.97848e-16
5.98023e-16
5.97846e-16
5.98553e-16
5.98897e-16
5.99031e-16
5.99844e-16
6.00052e-16
6.00014e-16
6.01446e-16
6.01453e-16
6.00914e-16
5.99747e-16
6.0124e-16
6.02327e-16
6.02103e-16
6.0166e-16
6.02957e-16
6.02978e-16
6.02516e-16
6.01976e-16
6.03701e-16
6.04177e-16
6.03519e-16
6.04254e-16
6.03883e-16
6.0428e-16
6.03882e-16
6.04253e-16
6.05143e-16
6.05054e-16
6.04948e-16
6.05143e-16
6.05328e-16
6.0497e-16
6.04885e-16
6.05142e-16
6.05389e-16
6.06606e-16
6.063e-16
6.06121e-16
6.04906e-16
6.06349e-16
6.05416e-16
6.04149e-16
6.05292e-16
6.05434e-16
6.05341e-16
6.05889e-16
6.04829e-16
6.06641e-16
6.04317e-16
6.05182e-16
6.04373e-16
6.05088e-16
6.05179e-16
6.06324e-16
6.04747e-16
6.04092e-16
6.04417e-16
6.0451e-16
6.04634e-16
6.0329e-16
6.04626e-16
6.04689e-16
6.04312e-16
6.04627e-16
6.03089e-16
6.04412e-16
6.05378e-16
6.04201e-16
6.0454e-16
6.04911e-16
6.05667e-16
6.04057e-16
6.06765e-16
6.07769e-16
6.04805e-16
6.07215e-16
6.0533e-16
6.0585e-16
6.06442e-16
6.0679e-16
6.06215e-16
6.06741e-16
6.06128e-16
6.06516e-16
6.05736e-16
6.07521e-16
6.06782e-16
5.90336e-16
5.90217e-16
5.90003e-16
5.89667e-16
5.89458e-16
5.8936e-16
5.88891e-16
5.88834e-16
5.88697e-16
5.89062e-16
5.88836e-16
5.89055e-16
5.89199e-16
5.89522e-16
5.90184e-16
5.89932e-16
5.90087e-16
5.90278e-16
5.90922e-16
5.90729e-16
5.90934e-16
5.9159e-16
5.92274e-16
5.92065e-16
5.9101e-16
5.91994e-16
5.9306e-16
5.93604e-16
5.9411e-16
5.94996e-16
5.94677e-16
5.94216e-16
5.95117e-16
5.95747e-16
5.95678e-16
5.96692e-16
5.96e-16
5.96396e-16
5.97819e-16
5.98804e-16
5.992e-16
5.99871e-16
6.00464e-16
5.9991e-16
5.99968e-16
6.00295e-16
6.00837e-16
6.00515e-16
6.00901e-16
6.03478e-16
6.02806e-16
6.02643e-16
6.02289e-16
6.02756e-16
6.03097e-16
6.03603e-16
6.03924e-16
6.0449e-16
6.04712e-16
6.04626e-16
6.045e-16
6.04058e-16
6.03646e-16
6.0481e-16
6.05962e-16
6.05358e-16
6.04946e-16
6.05387e-16
6.04128e-16
6.05249e-16
6.05678e-16
6.05993e-16
6.06483e-16
6.06417e-16
6.06647e-16
6.06626e-16
6.05284e-16
6.05473e-16
6.04417e-16
6.04703e-16
6.05687e-16
6.05007e-16
6.05402e-16
6.06774e-16
6.0534e-16
6.06056e-16
6.0461e-16
6.05463e-16
6.03623e-16
6.05104e-16
6.05058e-16
6.05157e-16
6.04473e-16
6.03885e-16
6.04818e-16
6.05251e-16
6.05977e-16
6.03267e-16
6.04448e-16
6.04901e-16
6.05001e-16
6.06004e-16
6.0446e-16
6.05823e-16
6.03698e-16
6.04758e-16
6.04245e-16
6.04352e-16
6.0586e-16
6.0453e-16
6.08443e-16
6.06664e-16
6.06326e-16
6.0829e-16
6.06021e-16
6.06294e-16
6.06946e-16
6.08389e-16
6.06841e-16
6.06771e-16
6.07409e-16
6.06894e-16
6.07232e-16
6.07784e-16
6.07055e-16
5.90716e-16
5.9061e-16
5.90453e-16
5.90314e-16
5.89941e-16
5.89645e-16
5.89412e-16
5.89276e-16
5.88784e-16
5.89269e-16
5.89106e-16
5.89318e-16
5.89686e-16
5.89751e-16
5.90173e-16
5.90176e-16
5.90357e-16
5.91084e-16
5.91005e-16
5.91694e-16
5.92405e-16
5.91772e-16
5.91981e-16
5.92246e-16
5.92241e-16
5.92729e-16
5.93299e-16
5.93918e-16
5.93787e-16
5.94285e-16
5.948e-16
5.94869e-16
5.95317e-16
5.96112e-16
5.96832e-16
5.9687e-16
5.97434e-16
5.96724e-16
5.98143e-16
5.9821e-16
5.98936e-16
5.99737e-16
6.00138e-16
6.00294e-16
6.00471e-16
6.00702e-16
6.00693e-16
6.00371e-16
6.01158e-16
6.02795e-16
6.02315e-16
6.02486e-16
6.0356e-16
6.04095e-16
6.03401e-16
6.02981e-16
6.04007e-16
6.0347e-16
6.04177e-16
6.05037e-16
6.0456e-16
6.04534e-16
6.03968e-16
6.05028e-16
6.06361e-16
6.05561e-16
6.03709e-16
6.05896e-16
6.05427e-16
6.06318e-16
6.06237e-16
6.06801e-16
6.06525e-16
6.06059e-16
6.06504e-16
6.08197e-16
6.06219e-16
6.04521e-16
6.05597e-16
6.05277e-16
6.06281e-16
6.06201e-16
6.05617e-16
6.05667e-16
6.03974e-16
6.05891e-16
6.05665e-16
6.06384e-16
6.04635e-16
6.05809e-16
6.05455e-16
6.03981e-16
6.03575e-16
6.04154e-16
6.04622e-16
6.05082e-16
6.04702e-16
6.03535e-16
6.04834e-16
6.04429e-16
6.04051e-16
6.05328e-16
6.05039e-16
6.05524e-16
6.05094e-16
6.05176e-16
6.04975e-16
6.04784e-16
6.0537e-16
6.05115e-16
6.08103e-16
6.06436e-16
6.07386e-16
6.07097e-16
6.06131e-16
6.06874e-16
6.06259e-16
6.06931e-16
6.07475e-16
6.06803e-16
6.07123e-16
6.06572e-16
6.07431e-16
6.09256e-16
6.06804e-16
5.9106e-16
5.90937e-16
5.90807e-16
5.90703e-16
5.90296e-16
5.89906e-16
5.89862e-16
5.89813e-16
5.89489e-16
5.89722e-16
5.89608e-16
5.89634e-16
5.90305e-16
5.9004e-16
5.89913e-16
5.90233e-16
5.90087e-16
5.90774e-16
5.91087e-16
5.91959e-16
5.91871e-16
5.91941e-16
5.91633e-16
5.92444e-16
5.92284e-16
5.9291e-16
5.93252e-16
5.93564e-16
5.93431e-16
5.94602e-16
5.95324e-16
5.95239e-16
5.95508e-16
5.95782e-16
5.98339e-16
5.97145e-16
5.97644e-16
5.9794e-16
5.98293e-16
5.97601e-16
5.99623e-16
6.00154e-16
6.00224e-16
6.00434e-16
6.00705e-16
6.00819e-16
6.01748e-16
6.01532e-16
6.00817e-16
6.02603e-16
6.02009e-16
6.01904e-16
6.03456e-16
6.03225e-16
6.02175e-16
6.03119e-16
6.02964e-16
6.03288e-16
6.035e-16
6.04583e-16
6.04335e-16
6.04137e-16
6.04974e-16
6.04693e-16
6.05677e-16
6.06398e-16
6.04653e-16
6.05665e-16
6.05259e-16
6.061e-16
6.0647e-16
6.07008e-16
6.07041e-16
6.05554e-16
6.06048e-16
6.07212e-16
6.0635e-16
6.0623e-16
6.06509e-16
6.06889e-16
6.06433e-16
6.05037e-16
6.05211e-16
6.05995e-16
6.03393e-16
6.05419e-16
6.06644e-16
6.0632e-16
6.03432e-16
6.05381e-16
6.06679e-16
6.04125e-16
6.03387e-16
6.04197e-16
6.04722e-16
6.04973e-16
6.04269e-16
6.02226e-16
6.0421e-16
6.04187e-16
6.0239e-16
6.0441e-16
6.04487e-16
6.04455e-16
6.04763e-16
6.0466e-16
6.0467e-16
6.04968e-16
6.05166e-16
6.04554e-16
6.06101e-16
6.0549e-16
6.08713e-16
6.0585e-16
6.05914e-16
6.06723e-16
6.05587e-16
6.05941e-16
6.07598e-16
6.06039e-16
6.0525e-16
6.06932e-16
6.06882e-16
6.0706e-16
6.04648e-16
5.91339e-16
5.91204e-16
5.9107e-16
5.9089e-16
5.90748e-16
5.90522e-16
5.9026e-16
5.901e-16
5.89967e-16
5.89912e-16
5.89967e-16
5.90078e-16
5.90477e-16
5.90163e-16
5.9034e-16
5.90762e-16
5.91185e-16
5.91105e-16
5.90885e-16
5.91615e-16
5.92243e-16
5.93312e-16
5.92137e-16
5.92463e-16
5.92664e-16
5.93103e-16
5.93538e-16
5.94178e-16
5.94719e-16
5.96201e-16
5.94357e-16
5.95057e-16
5.95993e-16
5.9656e-16
5.97521e-16
5.97119e-16
5.98584e-16
5.98622e-16
5.98481e-16
5.98261e-16
5.9809e-16
6.00956e-16
6.00985e-16
6.00527e-16
6.01068e-16
6.00073e-16
6.01482e-16
6.01341e-16
6.00344e-16
6.01685e-16
6.01799e-16
6.02576e-16
6.02198e-16
6.02881e-16
6.03687e-16
6.03541e-16
6.03786e-16
6.0493e-16
6.04451e-16
6.04946e-16
6.05774e-16
6.04337e-16
6.05869e-16
6.05256e-16
6.05107e-16
6.06654e-16
6.04841e-16
6.05835e-16
6.05964e-16
6.06129e-16
6.06619e-16
6.06738e-16
6.06163e-16
6.06219e-16
6.05213e-16
6.07639e-16
6.06073e-16
6.07436e-16
6.0668e-16
6.0722e-16
6.06354e-16
6.041e-16
6.04142e-16
6.06275e-16
6.04989e-16
6.0565e-16
6.0541e-16
6.05496e-16
6.0421e-16
6.04582e-16
6.04605e-16
6.05056e-16
6.0346e-16
6.04058e-16
6.03375e-16
6.04054e-16
6.05302e-16
6.02778e-16
6.03195e-16
6.04057e-16
6.03169e-16
6.04808e-16
6.04513e-16
6.03494e-16
6.04561e-16
6.0436e-16
6.04245e-16
6.05205e-16
6.04984e-16
6.04761e-16
6.05333e-16
6.05504e-16
6.07032e-16
6.06645e-16
6.05434e-16
6.07502e-16
6.08158e-16
6.04737e-16
6.07528e-16
6.0623e-16
6.0668e-16
6.0713e-16
6.05267e-16
6.05296e-16
6.09512e-16
5.91593e-16
5.91514e-16
5.91414e-16
5.91261e-16
5.90967e-16
5.90775e-16
5.90502e-16
5.90339e-16
5.90351e-16
5.90516e-16
5.90377e-16
5.90436e-16
5.90551e-16
5.9043e-16
5.90516e-16
5.91312e-16
5.91331e-16
5.90535e-16
5.90826e-16
5.91938e-16
5.93612e-16
5.92405e-16
5.91487e-16
5.9319e-16
5.9314e-16
5.93911e-16
5.95139e-16
5.9405e-16
5.94078e-16
5.94754e-16
5.94063e-16
5.9439e-16
5.95077e-16
5.95553e-16
5.94915e-16
5.97237e-16
5.98422e-16
5.9748e-16
5.98464e-16
6.00353e-16
5.99957e-16
6.0015e-16
6.00003e-16
6.00383e-16
6.00451e-16
6.00449e-16
6.029e-16
6.01506e-16
6.00736e-16
6.0057e-16
6.03091e-16
6.03583e-16
6.03594e-16
6.02435e-16
6.04402e-16
6.03728e-16
6.0452e-16
6.05336e-16
6.04803e-16
6.04647e-16
6.04598e-16
6.05846e-16
6.05451e-16
6.0555e-16
6.06109e-16
6.06786e-16
6.04652e-16
6.06089e-16
6.06676e-16
6.05976e-16
6.0699e-16
6.07666e-16
6.06105e-16
6.06707e-16
6.06412e-16
6.079e-16
6.07299e-16
6.07159e-16
6.0617e-16