/*--------------------------------*- C++ -*----------------------------------*\
| =========                 |                                                 |
| \\      /  F ield         | OpenFOAM: The Open Source CFD Toolbox           |
|  \\    /   O peration     | Version:  2306                                  |
|   \\  /    A nd           | Website:  www.openfoam.com                      |
|    \\/     M anipulation  |                                                 |
\*---------------------------------------------------------------------------*/
// * * * * * * * * * * * * * * * * * * * * * * * * * * * * * * * * * * * * * //
FoamFile
{
    version         2;
    format          ascii;
    class           volTensorField;
    location        "0";
    object          Q_S;
}

dimensions      [ 0 0 0 0 0 0 0 ];

internalField   nonuniform List<tensor> 
15625
(
(0.707107 0.707107 1.27544e-16 0.5 -0.5 -0.707107 0.5 -0.5 0.707107)
(0.707107 0.707107 -4.41101e-14 0.213614 -0.213614 -0.953277 0.674069 -0.674069 0.302096)
(0.707107 0.707107 -2.92611e-14 0.129384 -0.129384 -0.983117 0.695169 -0.695169 0.182976)
(0.707107 0.707107 -3.27632e-14 0.0915908 -0.0915908 -0.991576 0.70115 -0.70115 0.129529)
(0.707107 0.707107 -2.38368e-14 0.0700167 -0.0700167 -0.995086 0.703632 -0.703632 0.0990185)
(0.707107 0.707107 -1.63183e-14 0.0558597 -0.0558597 -0.996875 0.704897 -0.704897 0.0789975)
(0.707107 0.707107 -1.15313e-14 0.0457748 -0.0457748 -0.997902 0.705624 -0.705624 0.0647354)
(0.707107 0.707107 -8.48427e-15 0.0382318 -0.0382318 -0.998537 0.706072 -0.706072 0.054068)
(0.707107 0.707107 -6.47106e-15 0.0324192 -0.0324192 -0.998948 0.706363 -0.706363 0.0458476)
(0.707107 0.707107 -5.08859e-15 0.0278471 -0.0278471 -0.999224 0.706558 -0.706558 0.0393817)
(0.707107 0.707107 -4.09704e-15 0.0241916 -0.0241916 -0.999415 0.706693 -0.706693 0.0342122)
(0.707107 0.707107 -3.36994e-15 0.0212316 -0.0212316 -0.999549 0.706788 -0.706788 0.0300261)
(0.707107 0.707107 -2.82424e-15 0.0188039 -0.0188039 -0.999646 0.706857 -0.706857 0.0265927)
(0.707107 0.707107 -2.3941e-15 0.0167888 -0.0167888 -0.999718 0.706907 -0.706907 0.0237429)
(0.707107 0.707107 -2.05879e-15 0.0151007 -0.0151007 -0.999772 0.706946 -0.706946 0.0213557)
(0.707107 0.707107 -1.78776e-15 0.0136714 -0.0136714 -0.999813 0.706975 -0.706975 0.0193342)
(0.707107 0.707107 -1.57516e-15 0.01245 -0.01245 -0.999845 0.706997 -0.706997 0.0176069)
(0.707107 0.707107 -1.40702e-15 0.0113962 -0.0113962 -0.99987 0.707015 -0.707015 0.0161167)
(0.707107 0.707107 -1.26207e-15 0.0104803 -0.0104803 -0.99989 0.707029 -0.707029 0.0148214)
(0.707107 0.707107 -1.1412e-15 0.00967904 -0.00967904 -0.999906 0.707041 -0.707041 0.0136882)
(0.707107 0.707107 -1.03572e-15 0.00897259 -0.00897259 -0.999919 0.70705 -0.70705 0.0126892)
(0.707107 0.707107 -9.4796e-16 0.00834675 -0.00834675 -0.99993 0.707058 -0.707058 0.0118041)
(0.707107 0.707107 -8.71639e-16 0.00778805 -0.00778805 -0.999939 0.707064 -0.707064 0.011014)
(0.707107 0.707107 -8.04644e-16 0.00728649 -0.00728649 -0.999947 0.707069 -0.707069 0.0103047)
(0.707107 0.707107 -7.47258e-16 0.00683494 -0.00683494 -0.999953 0.707074 -0.707074 0.00966607)
(0.707107 0.707107 -6.95748e-16 0.00642729 -0.00642729 -0.999959 0.707078 -0.707078 0.00908956)
(0.707107 0.707107 -6.51578e-16 0.00605682 -0.00605682 -0.999963 0.707081 -0.707081 0.00856564)
(0.707107 0.707107 -6.14979e-16 0.00571898 -0.00571898 -0.999967 0.707084 -0.707084 0.00808785)
(0.707107 0.707107 -5.74089e-16 0.00540973 -0.00540973 -0.999971 0.707086 -0.707086 0.00765052)
(0.707107 0.707107 -5.37677e-16 0.00512553 -0.00512553 -0.999974 0.707088 -0.707088 0.0072486)
(0.707107 0.707107 -5.12003e-16 0.00486448 -0.00486448 -0.999976 0.70709 -0.70709 0.00687942)
(0.707107 0.707107 -4.873e-16 0.00462364 -0.00462364 -0.999979 0.707092 -0.707092 0.00653882)
(0.707107 0.707107 -4.65567e-16 0.00439973 -0.00439973 -0.999981 0.707093 -0.707093 0.00622216)
(0.707107 0.707107 -4.46627e-16 0.00419283 -0.00419283 -0.999982 0.707094 -0.707094 0.00592955)
(0.707107 0.707107 -4.24716e-16 0.00400062 -0.00400062 -0.999984 0.707095 -0.707095 0.00565772)
(0.707107 0.707107 -4.00809e-16 0.00382101 -0.00382101 -0.999985 0.707096 -0.707096 0.00540372)
(0.707107 0.707107 -3.83113e-16 0.00365322 -0.00365322 -0.999987 0.707097 -0.707097 0.00516643)
(0.707107 0.707107 -3.5836e-16 0.00349599 -0.00349599 -0.999988 0.707098 -0.707098 0.00494408)
(0.707107 0.707107 -3.34788e-16 0.00334926 -0.00334926 -0.999989 0.707099 -0.707099 0.00473657)
(0.707107 0.707107 -3.2032e-16 0.00321135 -0.00321135 -0.99999 0.707099 -0.707099 0.00454153)
(0.707107 0.707107 -3.05549e-16 0.00308178 -0.00308178 -0.999991 0.7071 -0.7071 0.0043583)
(0.707107 0.707107 -2.89452e-16 0.00295958 -0.00295958 -0.999991 0.707101 -0.707101 0.00418548)
(0.707107 0.707107 -2.74525e-16 0.00284383 -0.00284383 -0.999992 0.707101 -0.707101 0.00402179)
(0.707107 0.707107 -2.69229e-16 0.00273474 -0.00273474 -0.999993 0.707101 -0.707101 0.0038675)
(0.707107 0.707107 -2.58825e-16 0.00263197 -0.00263197 -0.999993 0.707102 -0.707102 0.00372217)
(0.707107 0.707107 -2.39696e-16 0.00253422 -0.00253422 -0.999994 0.707102 -0.707102 0.00358393)
(0.707107 0.707107 -2.25627e-16 0.00244125 -0.00244125 -0.999994 0.707103 -0.707103 0.00345245)
(0.707107 0.707107 -2.14515e-16 0.00235333 -0.00235333 -0.999994 0.707103 -0.707103 0.00332812)
(0.707107 0.707107 -2.0737e-16 0.00226976 -0.00226976 -0.999995 0.707103 -0.707103 0.00320993)
(0.707107 0.707107 -1.97946e-16 0.00219035 -0.00219035 -0.999995 0.707103 -0.707103 0.00309762)
(0.707107 0.707107 -1.81683e-16 0.00211444 -0.00211444 -0.999996 0.707104 -0.707104 0.00299027)
(0.707107 0.707107 -1.72702e-16 0.00204236 -0.00204236 -0.999996 0.707104 -0.707104 0.00288833)
(0.707107 0.707107 -1.69043e-16 0.00197348 -0.00197348 -0.999996 0.707104 -0.707104 0.00279093)
(0.707107 0.707107 -1.6483e-16 0.00190677 -0.00190677 -0.999996 0.707104 -0.707104 0.00269658)
(0.707107 0.707107 -1.58649e-16 0.00184394 -0.00184394 -0.999997 0.707104 -0.707104 0.00260773)
(0.707107 0.707107 -1.46489e-16 0.00178397 -0.00178397 -0.999997 0.707105 -0.707105 0.00252291)
(0.707107 0.707107 -1.31135e-16 0.0017254 -0.0017254 -0.999997 0.707105 -0.707105 0.00244008)
(0.707107 0.707107 -1.18946e-16 0.00166993 -0.00166993 -0.999997 0.707105 -0.707105 0.00236164)
(0.707107 0.707107 -1.09793e-16 0.00161703 -0.00161703 -0.999997 0.707105 -0.707105 0.00228682)
(0.707107 0.707107 -1.06146e-16 0.00156573 -0.00156573 -0.999998 0.707105 -0.707105 0.00221428)
(0.707107 0.707107 -1.09981e-16 0.00151642 -0.00151642 -0.999998 0.707105 -0.707105 0.00214455)
(0.707107 0.707107 -1.07403e-16 0.00146902 -0.00146902 -0.999998 0.707105 -0.707105 0.00207751)
(0.707107 0.707107 -1.00138e-16 0.00142347 -0.00142347 -0.999998 0.707105 -0.707105 0.00201309)
(0.707107 0.707107 -9.49736e-17 0.00137928 -0.00137928 -0.999998 0.707105 -0.707105 0.0019506)
(0.707107 0.707107 -9.34702e-17 0.00133683 -0.00133683 -0.999998 0.707106 -0.707106 0.00189057)
(0.707107 0.707107 -9.01925e-17 0.00129606 -0.00129606 -0.999998 0.707106 -0.707106 0.00183291)
(0.707107 0.707107 -8.61512e-17 0.00125652 -0.00125652 -0.999998 0.707106 -0.707106 0.00177699)
(0.707107 0.707107 -8.14601e-17 0.00121856 -0.00121856 -0.999999 0.707106 -0.707106 0.0017233)
(0.707107 0.707107 -6.98708e-17 0.00118173 -0.00118173 -0.999999 0.707106 -0.707106 0.00167123)
(0.707107 0.707107 -5.8845e-17 0.00114563 -0.00114563 -0.999999 0.707106 -0.707106 0.00162017)
(0.707107 0.707107 -5.09842e-17 0.00111099 -0.00111099 -0.999999 0.707106 -0.707106 0.00157118)
(0.707107 0.707107 -5.33607e-17 0.00107778 -0.00107778 -0.999999 0.707106 -0.707106 0.00152421)
(0.707107 0.707107 -5.10805e-17 0.00104519 -0.00104519 -0.999999 0.707106 -0.707106 0.00147812)
(0.707107 0.707107 -5.16623e-17 0.00101321 -0.00101321 -0.999999 0.707106 -0.707106 0.00143289)
(0.707107 0.707107 -6.06502e-17 0.000982554 -0.000982554 -0.999999 0.707106 -0.707106 0.00138954)
(0.707107 0.707107 -5.45744e-17 0.000953195 -0.000953195 -0.999999 0.707106 -0.707106 0.00134802)
(0.707107 0.707107 -4.10613e-17 0.000924003 -0.000924003 -0.999999 0.707106 -0.707106 0.00130674)
(0.707107 0.707107 -3.07119e-17 0.000895692 -0.000895692 -0.999999 0.707106 -0.707106 0.0012667)
(0.707107 0.707107 -3.02284e-17 0.000868597 -0.000868597 -0.999999 0.707106 -0.707106 0.00122838)
(0.707107 0.707107 -4.11018e-17 0.000841625 -0.000841625 -0.999999 0.707106 -0.707106 0.00119024)
(0.707107 0.707107 -5.29856e-17 0.000815469 -0.000815469 -0.999999 0.707106 -0.707106 0.00115325)
(0.707107 0.707107 -5.63941e-17 0.00079046 -0.00079046 -0.999999 0.707106 -0.707106 0.00111788)
(0.707107 0.707107 -5.31897e-17 0.000765534 -0.000765534 -0.999999 0.707106 -0.707106 0.00108263)
(0.707107 0.707107 -4.59887e-17 0.000741367 -0.000741367 -0.999999 0.707106 -0.707106 0.00104845)
(0.707107 0.707107 -3.95066e-17 0.000717947 -0.000717947 -0.999999 0.707106 -0.707106 0.00101533)
(0.707107 0.707107 -3.9574e-17 0.000694579 -0.000694579 -1 0.707106 -0.707106 0.000982283)
(0.707107 0.707107 -3.07171e-17 0.000671928 -0.000671928 -1 0.707106 -0.707106 0.00095025)
(0.707107 0.707107 -1.72384e-17 0.000649649 -0.000649649 -1 0.707106 -0.707106 0.000918742)
(0.707107 0.707107 -1.38269e-17 0.000628055 -0.000628055 -1 0.707107 -0.707107 0.000888204)
(0.707107 0.707107 -1.468e-17 0.000607135 -0.000607135 -1 0.707107 -0.707107 0.000858619)
(0.707107 0.707107 -1.79871e-17 0.000586225 -0.000586225 -1 0.707107 -0.707107 0.000829047)
(0.707107 0.707107 -1.99061e-17 0.000565645 -0.000565645 -1 0.707107 -0.707107 0.000799943)
(0.707107 0.707107 -1.81734e-17 0.000545388 -0.000545388 -1 0.707107 -0.707107 0.000771294)
(0.707107 0.707107 -2.84165e-17 0.000525759 -0.000525759 -1 0.707107 -0.707107 0.000743536)
(0.707107 0.707107 -3.27743e-17 0.000506747 -0.000506747 -1 0.707107 -0.707107 0.000716648)
(0.707107 0.707107 -1.90417e-17 0.000487406 -0.000487406 -1 0.707107 -0.707107 0.000689296)
(0.707107 0.707107 -5.74233e-18 0.000468662 -0.000468662 -1 0.707107 -0.707107 0.000662789)
(0.707107 0.707107 -9.77368e-18 0.000450511 -0.000450511 -1 0.707107 -0.707107 0.000637118)
(0.707107 0.707107 -1.60507e-17 0.000432022 -0.000432022 -1 0.707107 -0.707107 0.000610971)
(0.707107 0.707107 -1.566e-17 0.000413806 -0.000413806 -1 0.707107 -0.707107 0.000585211)
(0.707107 0.707107 -2.16215e-17 0.000396157 -0.000396157 -1 0.707107 -0.707107 0.000560251)
(0.707107 0.707107 -1.68714e-17 0.000378767 -0.000378767 -1 0.707107 -0.707107 0.000535657)
(0.707107 0.707107 -1.30138e-17 0.000361627 -0.000361627 -1 0.707107 -0.707107 0.000511417)
(0.707107 0.707107 -2.4323e-17 0.000344441 -0.000344441 -1 0.707107 -0.707107 0.000487114)
(0.707107 0.707107 -3.87088e-17 0.000327498 -0.000327498 -1 0.707107 -0.707107 0.000463152)
(0.707107 0.707107 -4.69069e-17 0.000310796 -0.000310796 -1 0.707107 -0.707107 0.000439532)
(0.707107 0.707107 -6.0087e-17 0.000294039 -0.000294039 -1 0.707107 -0.707107 0.000415834)
(0.707107 0.707107 -6.8173e-17 0.0002778 -0.0002778 -1 0.707107 -0.707107 0.000392869)
(0.707107 0.707107 -7.02914e-17 0.000261502 -0.000261502 -1 0.707107 -0.707107 0.00036982)
(0.707107 0.707107 -7.42019e-17 0.000245145 -0.000245145 -1 0.707107 -0.707107 0.000346687)
(0.707107 0.707107 -8.13073e-17 0.000229008 -0.000229008 -1 0.707107 -0.707107 0.000323866)
(0.707107 0.707107 -8.26499e-17 0.000213086 -0.000213086 -1 0.707107 -0.707107 0.00030135)
(0.707107 0.707107 -6.39952e-17 0.000197101 -0.000197101 -1 0.707107 -0.707107 0.000278743)
(0.707107 0.707107 -5.59971e-17 0.000181324 -0.000181324 -1 0.707107 -0.707107 0.000256431)
(0.707107 0.707107 -5.7486e-17 0.000165481 -0.000165481 -1 0.707107 -0.707107 0.000234026)
(0.707107 0.707107 -5.89567e-17 0.000149569 -0.000149569 -1 0.707107 -0.707107 0.000211523)
(0.707107 0.707107 -5.64654e-17 0.000133861 -0.000133861 -1 0.707107 -0.707107 0.000189308)
(0.707107 0.707107 -3.6848e-17 0.000118348 -0.000118348 -1 0.707107 -0.707107 0.000167369)
(0.707107 0.707107 -2.31849e-17 0.000102764 -0.000102764 -1 0.707107 -0.707107 0.00014533)
(0.707107 0.707107 -1.87917e-17 8.68414e-05 -8.68414e-05 -1 0.707107 -0.707107 0.000122812)
(0.707107 0.707107 -8.48884e-18 7.11114e-05 -7.11114e-05 -1 0.707107 -0.707107 0.000100567)
(0.707107 0.707107 2.50249e-18 5.55688e-05 -5.55688e-05 -1 0.707107 -0.707107 7.85861e-05)
(0.707107 0.707107 1.3173e-18 3.96918e-05 -3.96918e-05 -1 0.707107 -0.707107 5.61326e-05)
(0.707107 0.707107 6.99467e-18 2.37386e-05 -2.37386e-05 -1 0.707107 -0.707107 3.35714e-05)
(0.707107 0.707107 7.47398e-18 7.96867e-06 -7.96867e-06 -1 0.707107 -0.707107 1.12694e-05)
(0.707107 0.707107 4.40418e-14 0.674069 -0.674069 -0.302096 0.213614 -0.213614 0.953277)
(0.707107 0.707107 -1.73635e-16 0.5 -0.5 -0.707107 0.5 -0.5 0.707107)
(0.707107 0.707107 8.94608e-14 0.354297 -0.354297 -0.865418 0.611943 -0.611943 0.501051)
(0.707107 0.707107 3.68464e-14 0.262382 -0.262382 -0.928607 0.656624 -0.656624 0.371064)
(0.707107 0.707107 1.13752e-14 0.203085 -0.203085 -0.957869 0.677316 -0.677316 0.287206)
(0.707107 0.707107 1.57765e-15 0.162349 -0.162349 -0.973286 0.688217 -0.688217 0.229597)
(0.707107 0.707107 -2.10706e-15 0.13289 -0.13289 -0.982182 0.694507 -0.694507 0.187935)
(0.707107 0.707107 -3.24945e-15 0.110793 -0.110793 -0.987649 0.698373 -0.698373 0.156686)
(0.707107 0.707107 -3.38582e-15 0.0937867 -0.0937867 -0.991165 0.70086 -0.70086 0.132634)
(0.707107 0.707107 -3.15881e-15 0.0804436 -0.0804436 -0.993508 0.702516 -0.702516 0.113764)
(0.707107 0.707107 -2.83804e-15 0.0698062 -0.0698062 -0.995115 0.703653 -0.703653 0.0987209)
(0.707107 0.707107 -2.51961e-15 0.0612049 -0.0612049 -0.996247 0.704453 -0.704453 0.0865568)
(0.707107 0.707107 -2.23191e-15 0.0541643 -0.0541643 -0.997062 0.705029 -0.705029 0.0765998)
(0.707107 0.707107 -1.97965e-15 0.0483312 -0.0483312 -0.997661 0.705453 -0.705453 0.0683506)
(0.707107 0.707107 -1.75253e-15 0.0434433 -0.0434433 -0.998111 0.705771 -0.705771 0.0614381)
(0.707107 0.707107 -1.56315e-15 0.0393076 -0.0393076 -0.998454 0.706013 -0.706013 0.0555893)
(0.707107 0.707107 -1.42789e-15 0.035774 -0.035774 -0.998719 0.706201 -0.706201 0.050592)
(0.707107 0.707107 -1.32008e-15 0.0327277 -0.0327277 -0.998928 0.706349 -0.706349 0.046284)
(0.707107 0.707107 -1.19819e-15 0.0300821 -0.0300821 -0.999095 0.706467 -0.706467 0.0425426)
(0.707107 0.707107 -1.09103e-15 0.0277667 -0.0277667 -0.999229 0.706561 -0.706561 0.0392681)
(0.707107 0.707107 -1.00861e-15 0.0257255 -0.0257255 -0.999338 0.706639 -0.706639 0.0363814)
(0.707107 0.707107 -9.33884e-16 0.0239162 -0.0239162 -0.999428 0.706702 -0.706702 0.0338226)
(0.707107 0.707107 -8.68469e-16 0.0223037 -0.0223037 -0.999502 0.706755 -0.706755 0.0315422)
(0.707107 0.707107 -8.18442e-16 0.020859 -0.020859 -0.999565 0.706799 -0.706799 0.0294991)
(0.707107 0.707107 -7.69239e-16 0.0195578 -0.0195578 -0.999617 0.706836 -0.706836 0.0276589)
(0.707107 0.707107 -7.21323e-16 0.0183805 -0.0183805 -0.999662 0.706868 -0.706868 0.025994)
(0.707107 0.707107 -6.80412e-16 0.0173116 -0.0173116 -0.9997 0.706895 -0.706895 0.0244824)
(0.707107 0.707107 -6.39457e-16 0.0163384 -0.0163384 -0.999733 0.706918 -0.706918 0.0231061)
(0.707107 0.707107 -6.04758e-16 0.0154478 -0.0154478 -0.999761 0.706938 -0.706938 0.0218465)
(0.707107 0.707107 -5.76377e-16 0.0146306 -0.0146306 -0.999786 0.706955 -0.706955 0.0206908)
(0.707107 0.707107 -5.53816e-16 0.0138785 -0.0138785 -0.999807 0.706971 -0.706971 0.0196271)
(0.707107 0.707107 -5.35024e-16 0.0131847 -0.0131847 -0.999826 0.706984 -0.706984 0.018646)
(0.707107 0.707107 -5.07052e-16 0.0125426 -0.0125426 -0.999843 0.706996 -0.706996 0.0177378)
(0.707107 0.707107 -4.80556e-16 0.0119471 -0.0119471 -0.999857 0.707006 -0.707006 0.0168957)
(0.707107 0.707107 -4.68875e-16 0.0113936 -0.0113936 -0.99987 0.707015 -0.707015 0.0161129)
(0.707107 0.707107 -4.4878e-16 0.0108778 -0.0108778 -0.999882 0.707023 -0.707023 0.0153835)
(0.707107 0.707107 -4.25611e-16 0.0103964 -0.0103964 -0.999892 0.70703 -0.70703 0.0147027)
(0.707107 0.707107 -4.08267e-16 0.00994593 -0.00994593 -0.999901 0.707037 -0.707037 0.0140657)
(0.707107 0.707107 -3.92999e-16 0.00952496 -0.00952496 -0.999909 0.707043 -0.707043 0.0134703)
(0.707107 0.707107 -3.72022e-16 0.00912842 -0.00912842 -0.999917 0.707048 -0.707048 0.0129095)
(0.707107 0.707107 -3.51842e-16 0.0087558 -0.0087558 -0.999923 0.707053 -0.707053 0.0123826)
(0.707107 0.707107 -3.40758e-16 0.00840577 -0.00840577 -0.999929 0.707057 -0.707057 0.0118876)
(0.707107 0.707107 -3.24201e-16 0.00807493 -0.00807493 -0.999935 0.707061 -0.707061 0.0114197)
(0.707107 0.707107 -3.13946e-16 0.00776288 -0.00776288 -0.99994 0.707064 -0.707064 0.0109784)
(0.707107 0.707107 -3.06921e-16 0.00746749 -0.00746749 -0.999944 0.707067 -0.707067 0.0105606)
(0.707107 0.707107 -2.90485e-16 0.00718738 -0.00718738 -0.999948 0.70707 -0.70707 0.0101645)
(0.707107 0.707107 -2.74926e-16 0.0069232 -0.0069232 -0.999952 0.707073 -0.707073 0.00979088)
(0.707107 0.707107 -2.69609e-16 0.00667121 -0.00667121 -0.999955 0.707075 -0.707075 0.00943452)
(0.707107 0.707107 -2.64411e-16 0.00643201 -0.00643201 -0.999959 0.707078 -0.707078 0.00909624)
(0.707107 0.707107 -2.51628e-16 0.00620465 -0.00620465 -0.999962 0.70708 -0.70708 0.0087747)
(0.707107 0.707107 -2.39161e-16 0.00598748 -0.00598748 -0.999964 0.707081 -0.707081 0.00846758)
(0.707107 0.707107 -2.37075e-16 0.00578107 -0.00578107 -0.999967 0.707083 -0.707083 0.00817567)
(0.707107 0.707107 -2.26478e-16 0.00558407 -0.00558407 -0.999969 0.707085 -0.707085 0.00789707)
(0.707107 0.707107 -2.10956e-16 0.00539603 -0.00539603 -0.999971 0.707086 -0.707086 0.00763114)
(0.707107 0.707107 -2.13797e-16 0.00521611 -0.00521611 -0.999973 0.707088 -0.707088 0.00737669)
(0.707107 0.707107 -2.09688e-16 0.00504347 -0.00504347 -0.999975 0.707089 -0.707089 0.00713254)
(0.707107 0.707107 -1.91001e-16 0.00487785 -0.00487785 -0.999976 0.70709 -0.70709 0.00689832)
(0.707107 0.707107 -1.82227e-16 0.0047195 -0.0047195 -0.999978 0.707091 -0.707091 0.00667438)
(0.707107 0.707107 -1.75123e-16 0.00456815 -0.00456815 -0.999979 0.707092 -0.707092 0.00646034)
(0.707107 0.707107 -1.66044e-16 0.00442211 -0.00442211 -0.99998 0.707093 -0.707093 0.00625381)
(0.707107 0.707107 -1.72939e-16 0.00428211 -0.00428211 -0.999982 0.707094 -0.707094 0.00605582)
(0.707107 0.707107 -1.76459e-16 0.00414705 -0.00414705 -0.999983 0.707095 -0.707095 0.00586481)
(0.707107 0.707107 -1.6287e-16 0.00401719 -0.00401719 -0.999984 0.707095 -0.707095 0.00568117)
(0.707107 0.707107 -1.51301e-16 0.00389242 -0.00389242 -0.999985 0.707096 -0.707096 0.00550471)
(0.707107 0.707107 -1.52042e-16 0.00377152 -0.00377152 -0.999986 0.707097 -0.707097 0.00533373)
(0.707107 0.707107 -1.54084e-16 0.00365542 -0.00365542 -0.999987 0.707097 -0.707097 0.00516955)
(0.707107 0.707107 -1.46402e-16 0.00354301 -0.00354301 -0.999987 0.707098 -0.707098 0.00501057)
(0.707107 0.707107 -1.37615e-16 0.00343414 -0.00343414 -0.999988 0.707098 -0.707098 0.0048566)
(0.707107 0.707107 -1.33148e-16 0.00332965 -0.00332965 -0.999989 0.707099 -0.707099 0.00470883)
(0.707107 0.707107 -1.20729e-16 0.00322847 -0.00322847 -0.99999 0.707099 -0.707099 0.00456574)
(0.707107 0.707107 -1.09711e-16 0.00312964 -0.00312964 -0.99999 0.7071 -0.7071 0.00442598)
(0.707107 0.707107 -1.16455e-16 0.00303442 -0.00303442 -0.999991 0.7071 -0.7071 0.00429132)
(0.707107 0.707107 -1.1793e-16 0.00294271 -0.00294271 -0.999991 0.707101 -0.707101 0.00416163)
(0.707107 0.707107 -1.10831e-16 0.00285306 -0.00285306 -0.999992 0.707101 -0.707101 0.00403483)
(0.707107 0.707107 -1.10055e-16 0.00276589 -0.00276589 -0.999992 0.707101 -0.707101 0.00391156)
(0.707107 0.707107 -1.11072e-16 0.00268198 -0.00268198 -0.999993 0.707102 -0.707102 0.0037929)
(0.707107 0.707107 -1.10473e-16 0.00259998 -0.00259998 -0.999993 0.707102 -0.707102 0.00367692)
(0.707107 0.707107 -9.98018e-17 0.00251977 -0.00251977 -0.999994 0.707102 -0.707102 0.00356349)
(0.707107 0.707107 -9.19197e-17 0.00244222 -0.00244222 -0.999994 0.707103 -0.707103 0.00345382)
(0.707107 0.707107 -9.52604e-17 0.00236682 -0.00236682 -0.999994 0.707103 -0.707103 0.00334719)
(0.707107 0.707107 -1.05406e-16 0.00229307 -0.00229307 -0.999995 0.707103 -0.707103 0.00324289)
(0.707107 0.707107 -1.12492e-16 0.00222137 -0.00222137 -0.999995 0.707103 -0.707103 0.0031415)
(0.707107 0.707107 -1.04668e-16 0.00215168 -0.00215168 -0.999995 0.707104 -0.707104 0.00304294)
(0.707107 0.707107 -9.99765e-17 0.00208309 -0.00208309 -0.999996 0.707104 -0.707104 0.00294594)
(0.707107 0.707107 -9.78066e-17 0.00201644 -0.00201644 -0.999996 0.707104 -0.707104 0.00285168)
(0.707107 0.707107 -9.37226e-17 0.00195123 -0.00195123 -0.999996 0.707104 -0.707104 0.00275946)
(0.707107 0.707107 -8.50663e-17 0.00188704 -0.00188704 -0.999996 0.707104 -0.707104 0.00266868)
(0.707107 0.707107 -7.56836e-17 0.00182506 -0.00182506 -0.999997 0.707104 -0.707104 0.00258103)
(0.707107 0.707107 -7.42599e-17 0.00176403 -0.00176403 -0.999997 0.707105 -0.707105 0.00249472)
(0.707107 0.707107 -7.58265e-17 0.00170394 -0.00170394 -0.999997 0.707105 -0.707105 0.00240973)
(0.707107 0.707107 -7.68982e-17 0.00164515 -0.00164515 -0.999997 0.707105 -0.707105 0.00232659)
(0.707107 0.707107 -7.60306e-17 0.00158764 -0.00158764 -0.999997 0.707105 -0.707105 0.00224526)
(0.707107 0.707107 -7.31238e-17 0.00153098 -0.00153098 -0.999998 0.707105 -0.707105 0.00216513)
(0.707107 0.707107 -7.82272e-17 0.00147555 -0.00147555 -0.999998 0.707105 -0.707105 0.00208674)
(0.707107 0.707107 -7.61262e-17 0.00142131 -0.00142131 -0.999998 0.707105 -0.707105 0.00201003)
(0.707107 0.707107 -6.61714e-17 0.00136749 -0.00136749 -0.999998 0.707105 -0.707105 0.00193392)
(0.707107 0.707107 -6.57796e-17 0.00131446 -0.00131446 -0.999998 0.707106 -0.707106 0.00185893)
(0.707107 0.707107 -6.00763e-17 0.00126256 -0.00126256 -0.999998 0.707106 -0.707106 0.00178553)
(0.707107 0.707107 -5.2688e-17 0.00121142 -0.00121142 -0.999999 0.707106 -0.707106 0.0017132)
(0.707107 0.707107 -5.56191e-17 0.00116099 -0.00116099 -0.999999 0.707106 -0.707106 0.00164188)
(0.707107 0.707107 -6.30561e-17 0.00111127 -0.00111127 -0.999999 0.707106 -0.707106 0.00157157)
(0.707107 0.707107 -5.73442e-17 0.00106189 -0.00106189 -0.999999 0.707106 -0.707106 0.00150174)
(0.707107 0.707107 -5.60269e-17 0.00101356 -0.00101356 -0.999999 0.707106 -0.707106 0.00143338)
(0.707107 0.707107 -6.39598e-17 0.000965541 -0.000965541 -0.999999 0.707106 -0.707106 0.00136548)
(0.707107 0.707107 -6.61503e-17 0.000917832 -0.000917832 -0.999999 0.707106 -0.707106 0.00129801)
(0.707107 0.707107 -7.23611e-17 0.000870772 -0.000870772 -0.999999 0.707106 -0.707106 0.00123146)
(0.707107 0.707107 -8.27623e-17 0.000824341 -0.000824341 -0.999999 0.707106 -0.707106 0.00116579)
(0.707107 0.707107 -8.11269e-17 0.000778194 -0.000778194 -0.999999 0.707106 -0.707106 0.00110053)
(0.707107 0.707107 -8.32746e-17 0.000732318 -0.000732318 -0.999999 0.707106 -0.707106 0.00103565)
(0.707107 0.707107 -9.23603e-17 0.000686706 -0.000686706 -1 0.707106 -0.707106 0.000971148)
(0.707107 0.707107 -8.97184e-17 0.000641688 -0.000641688 -1 0.707106 -0.707106 0.000907484)
(0.707107 0.707107 -8.63484e-17 0.000596926 -0.000596926 -1 0.707107 -0.707107 0.000844181)
(0.707107 0.707107 -7.43772e-17 0.000552069 -0.000552069 -1 0.707107 -0.707107 0.000780743)
(0.707107 0.707107 -6.38021e-17 0.000507782 -0.000507782 -1 0.707107 -0.707107 0.000718112)
(0.707107 0.707107 -6.31e-17 0.000463401 -0.000463401 -1 0.707107 -0.707107 0.000655348)
(0.707107 0.707107 -5.93562e-17 0.000419247 -0.000419247 -1 0.707107 -0.707107 0.000592905)
(0.707107 0.707107 -5.14919e-17 0.000375316 -0.000375316 -1 0.707107 -0.707107 0.000530777)
(0.707107 0.707107 -4.52271e-17 0.000331277 -0.000331277 -1 0.707107 -0.707107 0.000468496)
(0.707107 0.707107 -3.37531e-17 0.000287453 -0.000287453 -1 0.707107 -0.707107 0.00040652)
(0.707107 0.707107 -2.18e-17 0.000243518 -0.000243518 -1 0.707107 -0.707107 0.000344386)
(0.707107 0.707107 -1.26658e-17 0.000199468 -0.000199468 -1 0.707107 -0.707107 0.00028209)
(0.707107 0.707107 -3.60303e-18 0.000155308 -0.000155308 -1 0.707107 -0.707107 0.000219638)
(0.707107 0.707107 -2.33712e-19 0.000111031 -0.000111031 -1 0.707107 -0.707107 0.000157021)
(0.707107 0.707107 1.50607e-17 6.66399e-05 -6.66399e-05 -1 0.707107 -0.707107 9.42431e-05)
(0.707107 0.707107 1.02652e-17 2.21291e-05 -2.21291e-05 -1 0.707107 -0.707107 3.12952e-05)
(0.707107 0.707107 2.92424e-14 0.695169 -0.695169 -0.182976 0.129384 -0.129384 0.983117)
(0.707107 0.707107 -8.96245e-14 0.611943 -0.611943 -0.501051 0.354297 -0.354297 0.865418)
(0.707107 0.707107 1.4989e-17 0.5 -0.5 -0.707107 0.5 -0.5 0.707107)
(0.707107 0.707107 2.18114e-14 0.400843 -0.400843 -0.823802 0.582516 -0.582516 0.566877)
(0.707107 0.707107 1.81783e-14 0.323686 -0.323686 -0.889075 0.628671 -0.628671 0.457761)
(0.707107 0.707107 1.11921e-14 0.264947 -0.264947 -0.92715 0.655594 -0.655594 0.374691)
(0.707107 0.707107 5.90558e-15 0.219962 -0.219962 -0.950386 0.672024 -0.672024 0.311073)
(0.707107 0.707107 2.71401e-15 0.185111 -0.185111 -0.965126 0.682447 -0.682447 0.261786)
(0.707107 0.707107 9.67685e-16 0.15777 -0.15777 -0.974791 0.689281 -0.689281 0.223121)
(0.707107 0.707107 5.37243e-17 0.136047 -0.136047 -0.981317 0.693896 -0.693896 0.1924)
(0.707107 0.707107 -4.12818e-16 0.118573 -0.118573 -0.98584 0.697094 -0.697094 0.167688)
(0.707107 0.707107 -6.27399e-16 0.104345 -0.104345 -0.989052 0.699366 -0.699366 0.147566)
(0.707107 0.707107 -7.0144e-16 0.0926216 -0.0926216 -0.991384 0.701014 -0.701014 0.130987)
(0.707107 0.707107 -7.16866e-16 0.0828565 -0.0828565 -0.993111 0.702236 -0.702236 0.117177)
(0.707107 0.707107 -6.85882e-16 0.0746386 -0.0746386 -0.994413 0.703157 -0.703157 0.105555)
(0.707107 0.707107 -6.39624e-16 0.0676547 -0.0676547 -0.995412 0.703863 -0.703863 0.0956782)
(0.707107 0.707107 -6.03309e-16 0.0616628 -0.0616628 -0.99619 0.704413 -0.704413 0.0872043)
(0.707107 0.707107 -5.61345e-16 0.0564834 -0.0564834 -0.996805 0.704847 -0.704847 0.0798796)
(0.707107 0.707107 -5.00555e-16 0.0519693 -0.0519693 -0.997296 0.705194 -0.705194 0.0734957)
(0.707107 0.707107 -4.49226e-16 0.0480089 -0.0480089 -0.997692 0.705475 -0.705475 0.0678949)
(0.707107 0.707107 -4.09175e-16 0.044512 -0.044512 -0.998017 0.705704 -0.705704 0.0629495)
(0.707107 0.707107 -3.68913e-16 0.0414063 -0.0414063 -0.998284 0.705893 -0.705893 0.0585574)
(0.707107 0.707107 -3.47586e-16 0.0386315 -0.0386315 -0.998506 0.706051 -0.706051 0.0546331)
(0.707107 0.707107 -3.17395e-16 0.0361398 -0.0361398 -0.998693 0.706183 -0.706183 0.0511094)
(0.707107 0.707107 -2.6991e-16 0.0338946 -0.0338946 -0.99885 0.706294 -0.706294 0.0479342)
(0.707107 0.707107 -2.34222e-16 0.0318624 -0.0318624 -0.998984 0.706389 -0.706389 0.0450602)
(0.707107 0.707107 -1.99051e-16 0.0300118 -0.0300118 -0.999099 0.70647 -0.70647 0.0424431)
(0.707107 0.707107 -1.70814e-16 0.0283263 -0.0283263 -0.999197 0.706539 -0.706539 0.0400594)
(0.707107 0.707107 -1.57979e-16 0.0267876 -0.0267876 -0.999282 0.706599 -0.706599 0.0378834)
(0.707107 0.707107 -1.41604e-16 0.0253704 -0.0253704 -0.999356 0.706652 -0.706652 0.0358791)
(0.707107 0.707107 -1.27266e-16 0.0240617 -0.0240617 -0.999421 0.706697 -0.706697 0.0340283)
(0.707107 0.707107 -1.10177e-16 0.0228552 -0.0228552 -0.999478 0.706737 -0.706737 0.0323222)
(0.707107 0.707107 -7.28293e-17 0.0217438 -0.0217438 -0.999527 0.706772 -0.706772 0.0307504)
(0.707107 0.707107 -4.50855e-17 0.0207058 -0.0207058 -0.999571 0.706804 -0.706804 0.0292824)
(0.707107 0.707107 -4.46582e-17 0.0197443 -0.0197443 -0.99961 0.706831 -0.706831 0.0279227)
(0.707107 0.707107 -2.63525e-17 0.0188477 -0.0188477 -0.999645 0.706856 -0.706856 0.0266547)
(0.707107 0.707107 3.3838e-18 0.0180119 -0.0180119 -0.999676 0.706877 -0.706877 0.0254727)
(0.707107 0.707107 1.60285e-18 0.0172262 -0.0172262 -0.999703 0.706897 -0.706897 0.0243616)
(0.707107 0.707107 -5.00609e-18 0.0164878 -0.0164878 -0.999728 0.706915 -0.706915 0.0233173)
(0.707107 0.707107 1.49584e-17 0.0158018 -0.0158018 -0.99975 0.70693 -0.70693 0.0223471)
(0.707107 0.707107 2.98776e-17 0.0151581 -0.0151581 -0.99977 0.706944 -0.706944 0.0214368)
(0.707107 0.707107 3.73141e-17 0.0145479 -0.0145479 -0.999788 0.706957 -0.706957 0.0205738)
(0.707107 0.707107 5.15885e-17 0.013962 -0.013962 -0.999805 0.706969 -0.706969 0.0197452)
(0.707107 0.707107 5.60265e-17 0.0134205 -0.0134205 -0.99982 0.706979 -0.706979 0.0189795)
(0.707107 0.707107 5.63934e-17 0.0129145 -0.0129145 -0.999833 0.706989 -0.706989 0.0182638)
(0.707107 0.707107 5.4621e-17 0.012422 -0.012422 -0.999846 0.706998 -0.706998 0.0175673)
(0.707107 0.707107 5.618e-17 0.0119557 -0.0119557 -0.999857 0.707006 -0.707006 0.0169079)
(0.707107 0.707107 4.43976e-17 0.011528 -0.011528 -0.999867 0.707013 -0.707013 0.0163031)
(0.707107 0.707107 3.45599e-17 0.0111111 -0.0111111 -0.999877 0.707019 -0.707019 0.0157134)
(0.707107 0.707107 4.8006e-17 0.0107043 -0.0107043 -0.999885 0.707026 -0.707026 0.0151381)
(0.707107 0.707107 5.33204e-17 0.010333 -0.010333 -0.999893 0.707031 -0.707031 0.014613)
(0.707107 0.707107 4.54745e-17 0.00997688 -0.00997688 -0.9999 0.707036 -0.707036 0.0141094)
(0.707107 0.707107 5.0498e-17 0.00962901 -0.00962901 -0.999907 0.707041 -0.707041 0.0136175)
(0.707107 0.707107 6.4418e-17 0.00930139 -0.00930139 -0.999913 0.707046 -0.707046 0.0131541)
(0.707107 0.707107 5.55954e-17 0.00898737 -0.00898737 -0.999919 0.70705 -0.70705 0.0127101)
(0.707107 0.707107 5.82408e-17 0.00868626 -0.00868626 -0.999925 0.707053 -0.707053 0.0122842)
(0.707107 0.707107 7.04515e-17 0.00839763 -0.00839763 -0.999929 0.707057 -0.707057 0.011876)
(0.707107 0.707107 6.56604e-17 0.00812715 -0.00812715 -0.999934 0.70706 -0.70706 0.0114935)
(0.707107 0.707107 6.85744e-17 0.00786234 -0.00786234 -0.999938 0.707063 -0.707063 0.011119)
(0.707107 0.707107 7.10334e-17 0.00760884 -0.00760884 -0.999942 0.707066 -0.707066 0.0107605)
(0.707107 0.707107 4.67875e-17 0.00736625 -0.00736625 -0.999946 0.707068 -0.707068 0.0104175)
(0.707107 0.707107 3.36363e-17 0.00712844 -0.00712844 -0.999949 0.707071 -0.707071 0.0100811)