/*--------------------------------*- C++ -*----------------------------------*\
| =========                 |                                                 |
| \\      /  F ield         | OpenFOAM: The Open Source CFD Toolbox           |
|  \\    /   O peration     | Version:  2306                                  |
|   \\  /    A nd           | Website:  www.openfoam.com                      |
|    \\/     M anipulation  |                                                 |
\*---------------------------------------------------------------------------*/
// * * * * * * * * * * * * * * * * * * * * * * * * * * * * * * * * * * * * * //
FoamFile
{
    version         2;
    format          ascii;
    class           volSymmTensorField;
    location        "98.61";
    object          Rdns;
}

dimensions      [ 0 2 -2 0 0 0 0 ];

internalField   nonuniform List<symmTensor> 
15625
(
(1.42378e-07 -3.37831e-11 -3.37831e-11 1.72109e-11 -8.4789e-14 1.72109e-11)
(5.74071e-07 -8.61963e-10 -1.01336e-10 5.47362e-10 -4.60643e-11 6.83075e-11)
(8.93992e-07 -2.966e-09 -1.16223e-10 3.2449e-09 -3.1297e-10 1.47283e-10)
(1.12417e-06 -5.61288e-09 -1.62698e-10 1.08539e-08 -9.73077e-10 2.45366e-10)
(1.32114e-06 -8.20667e-09 -2.5407e-10 2.68585e-08 -2.09737e-09 3.51617e-10)
(1.52603e-06 -1.09732e-08 -3.68555e-10 5.4874e-08 -3.67476e-09 4.58384e-10)
(1.76545e-06 -1.48003e-08 -5.16995e-10 9.81827e-08 -5.64517e-09 5.61958e-10)
(2.05711e-06 -2.08459e-08 -7.72401e-10 1.59406e-07 -7.91583e-09 6.60629e-10)
(2.41385e-06 -2.99897e-08 -1.27491e-09 2.40259e-07 -1.0375e-08 7.54881e-10)
(2.8457e-06 -4.23782e-08 -2.21177e-09 3.41475e-07 -1.29116e-08 8.46563e-10)
(3.36036e-06 -5.71222e-08 -3.7767e-09 4.62887e-07 -1.54278e-08 9.37941e-10)
(3.9632e-06 -7.22512e-08 -6.13499e-09 6.03663e-07 -1.78468e-08 1.03086e-09)
(4.656e-06 -8.47506e-08 -9.38928e-09 7.6237e-07 -2.01153e-08 1.12601e-09)
(5.43655e-06 -9.09633e-08 -1.35493e-08 9.37259e-07 -2.22001e-08 1.22368e-09)
(6.29945e-06 -8.70409e-08 -1.85417e-08 1.12658e-06 -2.4089e-08 1.32363e-09)
(7.23511e-06 -6.93494e-08 -2.42e-08 1.32861e-06 -2.5792e-08 1.42463e-09)
(8.23099e-06 -3.51181e-08 -3.03002e-08 1.54179e-06 -2.73168e-08 1.52412e-09)
(9.27278e-06 1.7532e-08 -3.65848e-08 1.76476e-06 -2.86659e-08 1.61881e-09)
(1.03449e-05 8.90501e-08 -4.2798e-08 1.99626e-06 -2.98321e-08 1.70597e-09)
(1.14318e-05 1.78915e-07 -4.87036e-08 2.23499e-06 -3.08017e-08 1.78358e-09)
(1.2519e-05 2.85293e-07 -5.41225e-08 2.47959e-06 -3.15529e-08 1.85111e-09)
(1.35928e-05 4.05635e-07 -5.89137e-08 2.72855e-06 -3.20673e-08 1.9085e-09)
(1.46426e-05 5.36696e-07 -6.29938e-08 2.98034e-06 -3.23345e-08 1.95627e-09)
(1.56585e-05 6.74926e-07 -6.63275e-08 3.23321e-06 -3.23456e-08 1.99538e-09)
(1.66342e-05 8.1669e-07 -6.89415e-08 3.48544e-06 -3.20929e-08 2.02736e-09)
(1.75644e-05 9.58555e-07 -7.08867e-08 3.73524e-06 -3.15822e-08 2.0542e-09)
(1.84463e-05 1.09748e-06 -7.22402e-08 3.98093e-06 -3.08358e-08 2.07845e-09)
(1.92779e-05 1.23082e-06 -7.30876e-08 4.22095e-06 -2.98828e-08 2.10237e-09)
(2.00594e-05 1.35651e-06 -7.35234e-08 4.45407e-06 -2.87593e-08 2.12785e-09)
(2.0791e-05 1.4728e-06 -7.36326e-08 4.67922e-06 -2.7506e-08 2.15617e-09)
(2.14747e-05 1.57855e-06 -7.34833e-08 4.89594e-06 -2.61681e-08 2.18779e-09)
(2.21124e-05 1.67274e-06 -7.314e-08 5.10371e-06 -2.47822e-08 2.22287e-09)
(2.27069e-05 1.75479e-06 -7.26612e-08 5.30237e-06 -2.33616e-08 2.26124e-09)
(2.32611e-05 1.82428e-06 -7.21031e-08 5.49186e-06 -2.19178e-08 2.30295e-09)
(2.37783e-05 1.88123e-06 -7.15165e-08 5.67213e-06 -2.04686e-08 2.34887e-09)
(2.42618e-05 1.92583e-06 -7.09494e-08 5.84327e-06 -1.90327e-08 2.40001e-09)
(2.47143e-05 1.95852e-06 -7.04361e-08 6.00546e-06 -1.76283e-08 2.45648e-09)
(2.5139e-05 1.97988e-06 -7.00047e-08 6.15905e-06 -1.62727e-08 2.51795e-09)
(2.55384e-05 1.99066e-06 -6.96839e-08 6.30445e-06 -1.49793e-08 2.58377e-09)
(2.59153e-05 1.99179e-06 -6.95022e-08 6.44221e-06 -1.37574e-08 2.65299e-09)
(2.62723e-05 1.98428e-06 -6.9481e-08 6.57287e-06 -1.26141e-08 2.72503e-09)
(2.66119e-05 1.96925e-06 -6.96245e-08 6.69698e-06 -1.15509e-08 2.80021e-09)
(2.6937e-05 1.94782e-06 -6.99347e-08 6.81512e-06 -1.05709e-08 2.87892e-09)
(2.72511e-05 1.92105e-06 -7.04122e-08 6.92808e-06 -9.68647e-09 2.96146e-09)
(2.75578e-05 1.88999e-06 -7.10563e-08 7.03671e-06 -8.9133e-09 3.04803e-09)
(2.78602e-05 1.85565e-06 -7.1855e-08 7.14185e-06 -8.25129e-09 3.13824e-09)
(2.81604e-05 1.81899e-06 -7.27849e-08 7.24432e-06 -7.68331e-09 3.23116e-09)
(2.84601e-05 1.78086e-06 -7.38164e-08 7.34494e-06 -7.19815e-09 3.32607e-09)
(2.87605e-05 1.74169e-06 -7.49054e-08 7.44453e-06 -6.80556e-09 3.42324e-09)
(2.9062e-05 1.70182e-06 -7.60029e-08 7.54379e-06 -6.5176e-09 3.52292e-09)
(2.93643e-05 1.66089e-06 -7.70607e-08 7.64345e-06 -6.31655e-09 3.62362e-09)
(2.96661e-05 1.61811e-06 -7.80291e-08 7.74409e-06 -6.16429e-09 3.72252e-09)
(2.99666e-05 1.57263e-06 -7.88862e-08 7.84601e-06 -6.02156e-09 3.81819e-09)
(3.02662e-05 1.52365e-06 -7.96742e-08 7.94869e-06 -5.84931e-09 3.91229e-09)
(3.0565e-05 1.47041e-06 -8.04463e-08 8.05149e-06 -5.61276e-09 4.00706e-09)
(3.08641e-05 1.4129e-06 -8.12654e-08 8.15377e-06 -5.32894e-09 4.1051e-09)
(3.11644e-05 1.35153e-06 -8.22002e-08 8.25487e-06 -5.04541e-09 4.20925e-09)
(3.14675e-05 1.28706e-06 -8.3305e-08 8.35455e-06 -4.80789e-09 4.32051e-09)
(3.17761e-05 1.22092e-06 -8.45992e-08 8.45357e-06 -4.65555e-09 4.43582e-09)
(3.20927e-05 1.15464e-06 -8.60913e-08 8.5528e-06 -4.6225e-09 4.5515e-09)
(3.24185e-05 1.08914e-06 -8.77198e-08 8.65302e-06 -4.68943e-09 4.66464e-09)
(3.27532e-05 1.02503e-06 -8.93797e-08 8.75496e-06 -4.8046e-09 4.77267e-09)
(3.30969e-05 9.62512e-07 -9.0993e-08 8.85877e-06 -4.90712e-09 4.87472e-09)
(3.34493e-05 9.00884e-07 -9.25521e-08 8.96327e-06 -4.91745e-09 4.97409e-09)
(3.38101e-05 8.39342e-07 -9.40605e-08 9.06704e-06 -4.76156e-09 5.07471e-09)
(3.41795e-05 7.77743e-07 -9.55405e-08 9.16918e-06 -4.49599e-09 5.1797e-09)
(3.45576e-05 7.16443e-07 -9.70266e-08 9.26907e-06 -4.27057e-09 5.29159e-09)
(3.49448e-05 6.55759e-07 -9.85448e-08 9.36667e-06 -4.20098e-09 5.41106e-09)
(3.53426e-05 5.95804e-07 -1.00093e-07 9.4638e-06 -4.28459e-09 5.53318e-09)
(3.57524e-05 5.36657e-07 -1.01665e-07 9.56259e-06 -4.49582e-09 5.65199e-09)
(3.61744e-05 4.7835e-07 -1.03255e-07 9.66445e-06 -4.8029e-09 5.76487e-09)
(3.66079e-05 4.20848e-07 -1.04865e-07 9.77015e-06 -5.16841e-09 5.87225e-09)
(3.70519e-05 3.6393e-07 -1.0649e-07 9.87998e-06 -5.53806e-09 5.97488e-09)
(3.75059e-05 3.06601e-07 -1.08116e-07 9.99228e-06 -5.79373e-09 6.07451e-09)
(3.7969e-05 2.47712e-07 -1.09727e-07 1.01048e-05 -5.80218e-09 6.17315e-09)
(3.84395e-05 1.87773e-07 -1.11395e-07 1.02155e-05 -5.56216e-09 6.27342e-09)
(3.89146e-05 1.29298e-07 -1.13298e-07 1.03225e-05 -5.23045e-09 6.37864e-09)
(3.93913e-05 7.48969e-08 -1.15576e-07 1.04244e-05 -4.95993e-09 6.49096e-09)
(3.98685e-05 2.66916e-08 -1.1809e-07 1.05223e-05 -4.80808e-09 6.60524e-09)
(4.0345e-05 -1.33221e-08 -1.20597e-07 1.06182e-05 -4.79917e-09 6.7137e-09)
(4.08187e-05 -4.44653e-08 -1.22936e-07 1.07139e-05 -4.92793e-09 6.81258e-09)
(4.12852e-05 -6.81067e-08 -1.25071e-07 1.08106e-05 -5.14318e-09 6.90447e-09)
(4.17405e-05 -8.58474e-08 -1.26981e-07 1.09092e-05 -5.39013e-09 6.99245e-09)
(4.21845e-05 -9.9467e-08 -1.28675e-07 1.10098e-05 -5.62771e-09 7.07877e-09)
(4.26193e-05 -1.10855e-07 -1.30177e-07 1.11119e-05 -5.82068e-09 7.16527e-09)
(4.3046e-05 -1.21588e-07 -1.31529e-07 1.12148e-05 -5.9526e-09 7.2524e-09)
(4.34643e-05 -1.3258e-07 -1.32816e-07 1.1318e-05 -6.04464e-09 7.33782e-09)
(4.38735e-05 -1.44617e-07 -1.34122e-07 1.14207e-05 -6.11738e-09 7.4192e-09)
(4.427e-05 -1.57809e-07 -1.35481e-07 1.1522e-05 -6.14e-09 7.49806e-09)
(4.4649e-05 -1.71886e-07 -1.36898e-07 1.16208e-05 -6.05243e-09 7.57816e-09)
(4.50073e-05 -1.86248e-07 -1.38376e-07 1.17163e-05 -5.86078e-09 7.66209e-09)
(4.53463e-05 -1.99611e-07 -1.39913e-07 1.18092e-05 -5.72126e-09 7.74981e-09)
(4.5668e-05 -2.10751e-07 -1.41501e-07 1.19004e-05 -5.79571e-09 7.84058e-09)
(4.59741e-05 -2.20414e-07 -1.43069e-07 1.19917e-05 -6.0494e-09 7.93002e-09)
(4.6266e-05 -2.30567e-07 -1.44506e-07 1.20854e-05 -6.3267e-09 8.01157e-09)
(4.65446e-05 -2.42783e-07 -1.45762e-07 1.21822e-05 -6.50054e-09 8.08269e-09)
(4.68103e-05 -2.57634e-07 -1.4692e-07 1.22797e-05 -6.51806e-09 8.1503e-09)
(4.70635e-05 -2.75405e-07 -1.48083e-07 1.23747e-05 -6.35038e-09 8.22224e-09)
(4.73087e-05 -2.94803e-07 -1.4933e-07 1.24666e-05 -6.11318e-09 8.30103e-09)
(4.7553e-05 -3.13624e-07 -1.50728e-07 1.25557e-05 -6.0059e-09 8.38608e-09)
(4.77989e-05 -3.30971e-07 -1.52247e-07 1.26428e-05 -6.10102e-09 8.47349e-09)
(4.80404e-05 -3.4859e-07 -1.53668e-07 1.27293e-05 -6.21601e-09 8.55299e-09)
(4.82712e-05 -3.68272e-07 -1.54794e-07 1.28163e-05 -6.16545e-09 8.6156e-09)
(4.8494e-05 -3.89616e-07 -1.55799e-07 1.29024e-05 -5.99008e-09 8.66913e-09)
(4.87153e-05 -4.11209e-07 -1.57023e-07 1.29855e-05 -5.83215e-09 8.72889e-09)
(4.89407e-05 -4.31035e-07 -1.5862e-07 1.30647e-05 -5.75442e-09 8.79944e-09)
(4.91737e-05 -4.46269e-07 -1.60476e-07 1.31411e-05 -5.70473e-09 8.86998e-09)
(4.94156e-05 -4.54661e-07 -1.6243e-07 1.32157e-05 -5.6191e-09 8.93009e-09)
(4.96566e-05 -4.57136e-07 -1.64208e-07 1.32877e-05 -5.42456e-09 8.97732e-09)
(4.98839e-05 -4.55463e-07 -1.65524e-07 1.33556e-05 -5.04788e-09 9.01184e-09)
(5.00935e-05 -4.50054e-07 -1.66534e-07 1.34168e-05 -4.47964e-09 9.03974e-09)
(5.02887e-05 -4.40174e-07 -1.67769e-07 1.34674e-05 -3.76501e-09 9.07211e-09)
(5.04701e-05 -4.23733e-07 -1.69493e-07 1.35061e-05 -3.01626e-09 9.11357e-09)
(5.06309e-05 -3.95753e-07 -1.71339e-07 1.35372e-05 -2.48931e-09 9.15355e-09)
(5.07647e-05 -3.52069e-07 -1.72908e-07 1.35657e-05 -2.39647e-09 9.18119e-09)
(5.08726e-05 -2.96671e-07 -1.74189e-07 1.35933e-05 -2.52795e-09 9.19779e-09)
(5.09582e-05 -2.36492e-07 -1.75311e-07 1.36208e-05 -2.51955e-09 9.20922e-09)
(5.10171e-05 -1.72963e-07 -1.76185e-07 1.36477e-05 -2.27083e-09 9.21843e-09)
(5.1037e-05 -1.02421e-07 -1.7652e-07 1.36727e-05 -1.92784e-09 9.22563e-09)
(5.10134e-05 -3.22224e-08 -1.76162e-07 1.36949e-05 -1.61944e-09 9.23129e-09)
(5.09586e-05 7.42764e-09 -1.7526e-07 1.37143e-05 -1.41654e-09 9.23661e-09)
(5.08864e-05 2.45743e-09 -1.73989e-07 1.3731e-05 -1.31636e-09 9.24239e-09)
(5.08068e-05 2.60307e-08 -1.7245e-07 1.37449e-05 -1.01206e-09 9.24686e-09)
(5.07302e-05 1.59342e-07 -1.70771e-07 1.37556e-05 -1.7601e-10 9.24791e-09)
(5.06783e-05 3.05963e-07 -1.69528e-07 1.3762e-05 8.20586e-10 9.24685e-09)
(5.74071e-07 -1.01336e-10 -8.61963e-10 6.83075e-11 -4.60643e-11 5.47362e-10)
(2.98949e-06 -3.95432e-09 -3.95432e-09 3.71383e-09 -1.75174e-09 3.71383e-09)
(5.27649e-06 -1.5505e-08 -6.27829e-09 2.38642e-08 -9.17005e-09 9.01501e-09)
(7.18732e-06 -3.20021e-08 -8.33855e-09 8.09028e-08 -2.55464e-08 1.56806e-08)
(8.96396e-06 -5.09448e-08 -1.06202e-08 1.99518e-07 -5.21636e-08 2.29234e-08)
(1.08608e-05 -7.45132e-08 -1.33474e-08 4.05016e-07 -8.87055e-08 3.02035e-08)
(1.30732e-05 -1.09025e-07 -1.73915e-08 7.20107e-07 -1.33777e-07 3.7217e-08)
(1.57485e-05 -1.62078e-07 -2.50127e-08 1.16279e-06 -1.85333e-07 4.38501e-08)
(1.90023e-05 -2.38811e-07 -3.98442e-08 1.7446e-06 -2.40939e-07 5.01182e-08)
(2.29286e-05 -3.38447e-07 -6.65478e-08 2.47032e-06 -2.98201e-07 5.61424e-08)
(2.76007e-05 -4.52288e-07 -1.09798e-07 3.3385e-06 -3.54996e-07 6.20676e-08)
(3.30694e-05 -5.63567e-07 -1.73485e-07 4.34315e-06 -4.09649e-07 6.80174e-08)
(3.93526e-05 -6.47863e-07 -2.59964e-07 5.47412e-06 -4.61003e-07 7.40704e-08)
(4.64305e-05 -6.76427e-07 -3.69245e-07 6.71944e-06 -5.08409e-07 8.02581e-08)
(5.4254e-05 -6.19597e-07 -4.99335e-07 8.06731e-06 -5.51642e-07 8.65616e-08)
(6.27361e-05 -4.49947e-07 -6.46095e-07 9.50635e-06 -5.9083e-07 9.28858e-08)
(7.17625e-05 -1.46911e-07 -8.04018e-07 1.1026e-05 -6.26046e-07 9.90651e-08)
(8.12032e-05 3.03161e-07 -9.66835e-07 1.26171e-05 -6.57265e-07 1.04897e-07)
(9.09176e-05 9.03096e-07 -1.1284e-06 1.42709e-05 -6.84279e-07 1.10222e-07)
(0.000100764 1.64838e-06 -1.28303e-06 1.59784e-05 -7.0677e-07 1.14919e-07)
(0.000110612 2.52456e-06 -1.42627e-06 1.77304e-05 -7.24293e-07 1.18947e-07)
(0.000120338 3.51175e-06 -1.5546e-06 1.95167e-05 -7.36444e-07 1.22299e-07)
(0.000129846 4.58487e-06 -1.66599e-06 2.13267e-05 -7.42939e-07 1.25016e-07)
(0.000139048 5.71644e-06 -1.7595e-06 2.31482e-05 -7.43572e-07 1.27167e-07)
(0.000147885 6.87844e-06 -1.83554e-06 2.49695e-05 -7.38243e-07 1.28866e-07)
(0.000156312 8.04416e-06 -1.89519e-06 2.67781e-05 -7.27121e-07 1.30245e-07)
(0.000164301 9.18972e-06 -1.94021e-06 2.85625e-05 -7.10688e-07 1.3146e-07)
(0.000171835 1.0294e-05 -1.97252e-06 3.03119e-05 -6.89558e-07 1.32648e-07)
(0.000178916 1.13402e-05 -1.9942e-06 3.20175e-05 -6.64471e-07 1.33921e-07)
(0.000185545 1.23135e-05 -2.00721e-06 3.36714e-05 -6.36234e-07 1.35361e-07)
(0.000191741 1.32039e-05 -2.01323e-06 3.52688e-05 -6.05688e-07 1.37011e-07)
(0.000197519 1.40023e-05 -2.01391e-06 3.6805e-05 -5.73577e-07 1.38895e-07)
(0.000202903 1.47032e-05 -2.01071e-06 3.82771e-05 -5.40341e-07 1.41015e-07)
(0.000207923 1.53031e-05 -2.00506e-06 3.96835e-05 -5.06392e-07 1.43379e-07)
(0.000212605 1.58013e-05 -1.99821e-06 4.10232e-05 -4.72205e-07 1.4603e-07)
(0.000216979 1.61989e-05 -1.99139e-06 4.22962e-05 -4.38251e-07 1.49015e-07)
(0.000221071 1.64987e-05 -1.98543e-06 4.35031e-05 -4.04901e-07 1.52328e-07)
(0.000224907 1.67048e-05 -1.98105e-06 4.46457e-05 -3.72469e-07 1.55938e-07)
(0.000228511 1.68228e-05 -1.97897e-06 4.57262e-05 -3.41237e-07 1.59814e-07)
(0.000231909 1.68595e-05 -1.97998e-06 4.67472e-05 -3.11447e-07 1.63924e-07)
(0.000235122 1.68225e-05 -1.98462e-06 4.77119e-05 -2.83341e-07 1.68248e-07)
(0.000238175 1.67202e-05 -1.99302e-06 4.86244e-05 -2.57125e-07 1.72797e-07)
(0.000241091 1.65612e-05 -2.00521e-06 4.94888e-05 -2.33012e-07 1.77578e-07)
(0.000243904 1.63535e-05 -2.02124e-06 5.03109e-05 -2.11192e-07 1.82585e-07)
(0.000246648 1.61052e-05 -2.04117e-06 5.1097e-05 -1.91851e-07 1.87798e-07)
(0.00024935 1.58241e-05 -2.06481e-06 5.18527e-05 -1.74954e-07 1.93202e-07)
(0.000252029 1.55182e-05 -2.09175e-06 5.25836e-05 -1.60233e-07 1.98783e-07)
(0.000254702 1.51946e-05 -2.1214e-06 5.32951e-05 -1.47522e-07 2.04525e-07)
(0.000257378 1.48575e-05 -2.15267e-06 5.39933e-05 -1.37008e-07 2.10404e-07)
(0.000260063 1.45103e-05 -2.18436e-06 5.46838e-05 -1.28914e-07 2.16386e-07)
(0.000262753 1.41515e-05 -2.21541e-06 5.53715e-05 -1.2283e-07 2.22385e-07)
(0.000265439 1.37762e-05 -2.24487e-06 5.60598e-05 -1.17919e-07 2.28276e-07)
(0.000268113 1.33797e-05 -2.27229e-06 5.67508e-05 -1.13401e-07 2.33997e-07)
(0.000270777 1.29573e-05 -2.2984e-06 5.74428e-05 -1.08699e-07 2.39635e-07)
(0.000273433 1.2505e-05 -2.32416e-06 5.81332e-05 -1.03316e-07 2.45307e-07)
(0.000276087 1.20218e-05 -2.35083e-06 5.88194e-05 -9.74694e-08 2.51155e-07)
(0.00027875 1.15087e-05 -2.37983e-06 5.94983e-05 -9.17952e-08 2.57337e-07)
(0.000281433 1.09696e-05 -2.41235e-06 6.01687e-05 -8.6938e-08 2.63912e-07)
(0.000284162 1.04139e-05 -2.44896e-06 6.08337e-05 -8.35275e-08 2.7071e-07)
(0.000286961 9.85214e-06 -2.49001e-06 6.14965e-05 -8.21229e-08 2.77527e-07)
(0.00028984 9.29167e-06 -2.53436e-06 6.21604e-05 -8.24146e-08 2.84207e-07)
(0.000292798 8.73861e-06 -2.57997e-06 6.28282e-05 -8.35666e-08 2.90612e-07)
(0.000295835 8.19662e-06 -2.62522e-06 6.35008e-05 -8.46589e-08 2.96696e-07)
(0.00029895 7.66359e-06 -2.66965e-06 6.4174e-05 -8.46252e-08 3.02625e-07)
(0.000302139 7.13666e-06 -2.71301e-06 6.48427e-05 -8.24873e-08 3.08601e-07)
(0.000305404 6.61431e-06 -2.75563e-06 6.55039e-05 -7.90071e-08 3.14791e-07)
(0.000308748 6.09622e-06 -2.79824e-06 6.61553e-05 -7.61899e-08 3.21335e-07)
(0.000312177 5.5826e-06 -2.84141e-06 6.6797e-05 -7.56317e-08 3.28276e-07)
(0.0003157 5.07493e-06 -2.88531e-06 6.7437e-05 -7.74915e-08 3.35358e-07)
(0.00031933 4.57494e-06 -2.92999e-06 6.80848e-05 -8.1642e-08 3.42268e-07)
(0.000323067 4.08366e-06 -2.97538e-06 6.87471e-05 -8.76584e-08 3.48872e-07)
(0.000326904 3.60123e-06 -3.02132e-06 6.94283e-05 -9.48454e-08 3.55195e-07)
(0.000330833 3.12685e-06 -3.06762e-06 7.01308e-05 -1.02242e-07 3.61271e-07)
(0.00033485 2.65573e-06 -3.11416e-06 7.08477e-05 -1.07915e-07 3.67143e-07)
(0.000338951 2.18234e-06 -3.16086e-06 7.15697e-05 -1.09699e-07 3.72857e-07)
(0.00034312 1.71004e-06 -3.20902e-06 7.22864e-05 -1.07424e-07 3.78568e-07)
(0.000347329 1.253e-06 -3.26165e-06 7.29863e-05 -1.03315e-07 3.84558e-07)
(0.000351549 8.26079e-07 -3.32104e-06 7.36598e-05 -9.96122e-08 3.91031e-07)
(0.000355773 4.42492e-07 -3.3848e-06 7.43123e-05 -9.75638e-08 3.97683e-07)
(0.000359994 1.15211e-07 -3.44877e-06 7.4954e-05 -9.80765e-08 4.04024e-07)
(0.000364195 -1.5072e-07 -3.50989e-06 7.55942e-05 -1.01325e-07 4.0981e-07)
(0.000368338 -3.62539e-07 -3.56677e-06 7.62399e-05 -1.06336e-07 4.15187e-07)
(0.000372386 -5.29072e-07 -3.6183e-06 7.68974e-05 -1.12052e-07 4.20328e-07)
(0.000376336 -6.61993e-07 -3.66458e-06 7.75677e-05 -1.17744e-07 4.25353e-07)
(0.000380204 -7.74478e-07 -3.70634e-06 7.82493e-05 -1.22826e-07 4.30355e-07)
(0.000383997 -8.77909e-07 -3.74467e-06 7.89392e-05 -1.26906e-07 4.35356e-07)
(0.000387714 -9.79851e-07 -3.78151e-06 7.9633e-05 -1.29989e-07 4.40238e-07)
(0.000391352 -1.0869e-06 -3.81879e-06 8.03251e-05 -1.32092e-07 4.44885e-07)
(0.000394877 -1.19925e-06 -3.8573e-06 8.10096e-05 -1.32951e-07 4.49395e-07)
(0.000398245 -1.31351e-06 -3.89721e-06 8.16801e-05 -1.3214e-07 4.53985e-07)
(0.000401426 -1.42574e-06 -3.93845e-06 8.23331e-05 -1.30047e-07 4.58804e-07)
(0.000404434 -1.53131e-06 -3.98049e-06 8.29731e-05 -1.28893e-07 4.63843e-07)
(0.000407288 -1.62629e-06 -4.02264e-06 8.36057e-05 -1.30928e-07 4.69051e-07)
(0.000410002 -1.71684e-06 -4.0636e-06 8.42389e-05 -1.35518e-07 4.74175e-07)
(0.000412587 -1.81538e-06 -4.10169e-06 8.48819e-05 -1.40253e-07 4.78833e-07)
(0.000415055 -1.93086e-06 -4.13636e-06 8.55374e-05 -1.43216e-07 4.82887e-07)
(0.000417411 -2.06374e-06 -4.16962e-06 8.61926e-05 -1.43752e-07 4.86758e-07)
(0.000419662 -2.21254e-06 -4.20379e-06 8.68335e-05 -1.41571e-07 4.90918e-07)
(0.000421847 -2.36814e-06 -4.23998e-06 8.74577e-05 -1.3841e-07 4.95469e-07)
(0.000424019 -2.517e-06 -4.27864e-06 8.80692e-05 -1.37178e-07 5.003e-07)
(0.000426197 -2.65395e-06 -4.31879e-06 8.86721e-05 -1.38926e-07 5.05173e-07)
(0.000428333 -2.79072e-06 -4.35668e-06 8.92701e-05 -1.4098e-07 5.09612e-07)
(0.000430379 -2.93924e-06 -4.38907e-06 8.98658e-05 -1.40598e-07 5.13209e-07)
(0.000432355 -3.09675e-06 -4.41911e-06 9.04539e-05 -1.38181e-07 5.16328e-07)
(0.000434317 -3.25379e-06 -4.45289e-06 9.10259e-05 -1.35541e-07 5.19683e-07)
(0.000436309 -3.39815e-06 -4.49339e-06 9.15769e-05 -1.33506e-07 5.23517e-07)
(0.000438367 -3.51411e-06 -4.53921e-06 9.21085e-05 -1.31481e-07 5.27399e-07)
(0.000440506 -3.58796e-06 -4.58787e-06 9.26214e-05 -1.2869e-07 5.3088e-07)
(0.000442644 -3.61804e-06 -4.63382e-06 9.31121e-05 -1.2409e-07 5.33693e-07)
(0.000444677 -3.60598e-06 -4.67107e-06 9.35755e-05 -1.1658e-07 5.35651e-07)
(0.000446566 -3.55125e-06 -4.70212e-06 9.39973e-05 -1.05758e-07 5.37093e-07)
(0.000448326 -3.45149e-06 -4.73671e-06 9.43557e-05 -9.18283e-08 5.38806e-07)
(0.000449952 -3.29561e-06 -4.77967e-06 9.46421e-05 -7.64674e-08 5.41148e-07)
(0.00045139 -3.05347e-06 -4.8241e-06 9.48783e-05 -6.45761e-08 5.43471e-07)
(0.000452588 -2.70036e-06 -4.86247e-06 9.50891e-05 -6.03884e-08 5.45092e-07)
(0.000453551 -2.26551e-06 -4.89408e-06 9.52876e-05 -6.06985e-08 5.46043e-07)
(0.000454308 -1.79743e-06 -4.92065e-06 9.54826e-05 -5.95482e-08 5.46628e-07)
(0.000454823 -1.30501e-06 -4.9403e-06 9.56744e-05 -5.48812e-08 5.47038e-07)
(0.000454998 -7.60493e-07 -4.94778e-06 9.5856e-05 -4.82909e-08 5.47357e-07)
(0.0004548 -2.23678e-07 -4.94016e-06 9.60225e-05 -4.15602e-08 5.47656e-07)
(0.000454326 6.43005e-08 -4.91973e-06 9.61745e-05 -3.65345e-08 5.47986e-07)
(0.000453689 -5.16448e-09 -4.88968e-06 9.6312e-05 -3.3611e-08 5.48358e-07)
(0.000452992 1.71637e-07 -4.85422e-06 9.64305e-05 -2.65187e-08 5.48608e-07)
(0.000452344 1.26328e-06 -4.81852e-06 9.65232e-05 -8.39844e-09 5.4856e-07)
(0.000451918 2.47974e-06 -4.79366e-06 9.65774e-05 1.3648e-08 5.48367e-07)
(8.93992e-07 -1.16223e-10 -2.966e-09 1.47283e-10 -3.1297e-10 3.2449e-09)
(5.27649e-06 -6.27829e-09 -1.5505e-08 9.01501e-09 -9.17005e-09 2.38642e-08)
(1.02223e-05 -2.74177e-08 -2.74177e-08 5.82928e-08 -4.24361e-08 5.82928e-08)
(1.49616e-05 -6.11249e-08 -3.79146e-08 1.95035e-07 -1.11035e-07 1.01417e-07)
(1.97634e-05 -1.04655e-07 -4.81061e-08 4.737e-07 -2.18894e-07 1.48363e-07)
(2.50821e-05 -1.63931e-07 -6.00128e-08 9.49042e-07 -3.6436e-07 1.95594e-07)
(3.13351e-05 -2.52637e-07 -7.89587e-08 1.66957e-06 -5.4192e-07 2.41022e-07)
(3.88781e-05 -3.85767e-07 -1.15918e-07 2.67316e-06 -7.43768e-07 2.83808e-07)
(4.80105e-05 -5.71268e-07 -1.87054e-07 3.98346e-06 -9.6083e-07 3.24012e-07)
(5.89856e-05 -8.02376e-07 -3.12158e-07 5.60944e-06 -1.18421e-06 3.62338e-07)
(7.20024e-05 -1.05368e-06 -5.10514e-07 7.54681e-06 -1.40606e-06 3.99669e-07)
(8.71976e-05 -1.28147e-06 -7.97708e-07 9.78173e-06 -1.62019e-06 4.36814e-07)
(0.000104615 -1.4255e-06 -1.18261e-06 1.22919e-05 -1.82235e-06 4.74348e-07)
(0.000124197 -1.41754e-06 -1.66422e-06 1.50517e-05 -2.01021e-06 5.12492e-07)
(0.000145803 -1.18901e-06 -2.23344e-06 1.80364e-05 -2.18291e-06 5.51091e-07)
(0.000169192 -6.78388e-07 -2.87275e-06 2.12222e-05 -2.34053e-06 5.89467e-07)
(0.000194052 1.59101e-07 -3.55938e-06 2.45868e-05 -2.48295e-06 6.26589e-07)
(0.000220029 1.35185e-06 -4.26779e-06 2.81109e-05 -2.60973e-06 6.61269e-07)
(0.000246742 2.90349e-06 -4.97314e-06 3.17759e-05 -2.71985e-06 6.92586e-07)
(0.00027381 4.80099e-06 -5.65242e-06 3.55629e-05 -2.81194e-06 7.19865e-07)
(0.000300881 7.00903e-06 -6.28733e-06 3.94527e-05 -2.88436e-06 7.42853e-07)
(0.000327628 9.48015e-06 -6.86341e-06 4.34236e-05 -2.93556e-06 7.61532e-07)
(0.000353787 1.21556e-05 -7.37233e-06 4.7454e-05 -2.96439e-06 7.7619e-07)
(0.000379125 1.49712e-05 -7.80977e-06 5.15184e-05 -2.97009e-06 7.87323e-07)
(0.000403486 1.7862e-05 -8.17672e-06 5.55924e-05 -2.95246e-06 7.95679e-07)
(0.000426742 2.07655e-05 -8.47673e-06 5.96501e-05 -2.91221e-06 8.02103e-07)
(0.000448819 2.36256e-05 -8.71629e-06 6.36677e-05 -2.85111e-06 8.07542e-07)
(0.00046967 2.63915e-05 -8.90245e-06 6.76219e-05 -2.77135e-06 8.12802e-07)
(0.000489293 2.90225e-05 -9.04286e-06 7.14943e-05 -2.67557e-06 8.18508e-07)
(0.00050769 3.14817e-05 -9.14483e-06 7.52663e-05 -2.56652e-06 8.25156e-07)
(0.000524907 3.37428e-05 -9.21525e-06 7.89262e-05 -2.44696e-06 8.3306e-07)
(0.000540984 3.57822e-05 -9.26076e-06 8.24609e-05 -2.3195e-06 8.42454e-07)
(0.000555982 3.75853e-05 -9.28753e-06 8.58614e-05 -2.18616e-06 8.53434e-07)
(0.000569975 3.91416e-05 -9.30158e-06 8.91214e-05 -2.04889e-06 8.66105e-07)
(0.000583033 4.04487e-05 -9.30811e-06 9.22366e-05 -1.90978e-06 8.80651e-07)
(0.000595236 4.15075e-05 -9.3121e-06 9.52048e-05 -1.77089e-06 8.97251e-07)
(0.000606649 4.23238e-05 -9.31718e-06 9.80256e-05 -1.63362e-06 9.15815e-07)
(0.000617343 4.29062e-05 -9.32643e-06 0.000100701 -1.49908e-06 9.3614e-07)
(0.000627381 4.32668e-05 -9.34302e-06 0.000103232 -1.36844e-06 9.58098e-07)
(0.000636828 4.34211e-05 -9.37017e-06 0.000105626 -1.24292e-06 9.81638e-07)
(0.000645743 4.33857e-05 -9.41027e-06 0.000107886 -1.12376e-06 1.00671e-06)
(0.000654191 4.31788e-05 -9.46384e-06 0.000110021 -1.01211e-06 1.0333e-06)
(0.000662237 4.28192e-05 -9.53118e-06 0.00011204 -9.09069e-07 1.06134e-06)
(0.000669973 4.23255e-05 -9.61279e-06 0.000113956 -8.15141e-07 1.09067e-06)
(0.000677495 4.17162e-05 -9.7092e-06 0.000115781 -7.30667e-07 1.12107e-06)
(0.000684881 4.10107e-05 -9.82016e-06 0.000117526 -6.55548e-07 1.15247e-06)
(0.000692189 4.02283e-05 -9.94472e-06 0.000119204 -5.89202e-07 1.18499e-06)
(0.000699468 3.93871e-05 -1.0081e-05 0.000120826 -5.31292e-07 1.21863e-06)
(0.000706746 3.84985e-05 -1.02248e-05 0.000122405 -4.82274e-07 1.25306e-06)
(0.000714041 3.7573e-05 -1.03711e-05 0.000123954 -4.42653e-07 1.28785e-06)
(0.00072135 3.66107e-05 -1.05166e-05 0.000125481 -4.10936e-07 1.32255e-06)
(0.000728649 3.56059e-05 -1.06582e-05 0.000126994 -3.8429e-07 1.35662e-06)
(0.000735924 3.4552e-05 -1.07945e-05 0.000128499 -3.60235e-07 1.38985e-06)
(0.000743167 3.34422e-05 -1.09271e-05 0.000129994 -3.37333e-07 1.4227e-06)
(0.000750377 3.22697e-05 -1.1058e-05 0.000131478 -3.14401e-07 1.45578e-06)
(0.000757567 3.10308e-05 -1.11914e-05 0.000132948 -2.91725e-07 1.48977e-06)
(0.000764756 2.97236e-05 -1.13322e-05 0.000134403 -2.70459e-07 1.52544e-06)
(0.00077198 2.83524e-05 -1.14846e-05 0.00013584 -2.51874e-07 1.56305e-06)
(0.000779305 2.69346e-05 -1.16512e-05 0.000137261 -2.37429e-07 1.60179e-06)
(0.000786798 2.54898e-05 -1.18339e-05 0.000138668 -2.28455e-07 1.64069e-06)
(0.000794489 2.40365e-05 -1.20298e-05 0.000140064 -2.24268e-07 1.67898e-06)
(0.000802387 2.25934e-05 -1.22327e-05 0.000141451 -2.22973e-07 1.71595e-06)
(0.000810496 2.11743e-05 -1.24373e-05 0.000142833 -2.22594e-07 1.75133e-06)
(0.000818808 1.97811e-05 -1.26403e-05 0.000144208 -2.21093e-07 1.78587e-06)
(0.000827315 1.84137e-05 -1.28387e-05 0.000145571 -2.16624e-07 1.82052e-06)
(0.000836028 1.70677e-05 -1.30334e-05 0.000146923 -2.1054e-07 1.85607e-06)
(0.000844966 1.57362e-05 -1.32276e-05 0.000148262 -2.06484e-07 1.8932e-06)
(0.000854151 1.44152e-05 -1.3424e-05 0.00014959 -2.07557e-07 1.93215e-06)
(0.0008636 1.31097e-05 -1.36237e-05 0.000150915 -2.14863e-07 1.97179e-06)
(0.000873332 1.18267e-05 -1.38277e-05 0.00015225 -2.29079e-07 2.01075e-06)
(0.000883341 1.05709e-05 -1.40356e-05 0.000153603 -2.49488e-07 2.04837e-06)
(0.000893606 9.34449e-06 -1.42458e-05 0.000154984 -2.74115e-07 2.0847e-06)
(0.000904105 8.14813e-06 -1.44573e-05 0.0001564 -3.00228e-07 2.11979e-06)
(0.000914832 6.97607e-06 -1.46703e-05 0.000157841 -3.22433e-07 2.15364e-06)
(0.00092578 5.82144e-06 -1.48856e-05 0.000159297 -3.34672e-07 2.18622e-06)
(0.000936909 4.69013e-06 -1.51069e-05 0.000160751 -3.3601e-07 2.21835e-06)
(0.000948136 3.60381e-06 -1.53411e-05 0.000162186 -3.31641e-07 2.25179e-06)
(0.000959385 2.58534e-06 -1.55938e-05 0.000163586 -3.26986e-07 2.2879e-06)
(0.000970636 1.65619e-06 -1.58586e-05 0.000164955 -3.25977e-07 2.32517e-06)
(0.000981886 8.38119e-07 -1.61252e-05 0.000166308 -3.32063e-07 2.36104e-06)
(0.0009931 1.41441e-07 -1.63846e-05 0.000167658 -3.46327e-07 2.39416e-06)
(0.00100419 -4.41031e-07 -1.66308e-05 0.000169016 -3.6612e-07 2.42514e-06)
(0.00101507 -9.19358e-07 -1.68584e-05 0.000170395 -3.88517e-07 2.45471e-06)
(0.00102573 -1.31327e-06 -1.70668e-05 0.000171798 -4.11502e-07 2.48342e-06)
(0.00103617 -1.6473e-06 -1.72574e-05 0.000173225 -4.33446e-07 2.51171e-06)
(0.0010464 -1.94435e-06 -1.7434e-05 0.000174672 -4.52865e-07 2.53969e-06)
(0.00105641 -2.2236e-06 -1.76041e-05 0.000176129 -4.68611e-07 2.56691e-06)
(0.00106619 -2.50246e-06 -1.77755e-05 0.000177588 -4.79643e-07 2.5929e-06)
(0.00107565 -2.78241e-06 -1.79513e-05 0.000179036 -4.85893e-07 2.61823e-06)
(0.00108467 -3.05587e-06 -1.81323e-05 0.000180464 -4.87851e-07 2.64405e-06)
(0.00109316 -3.31763e-06 -1.83173e-05 0.000181867 -4.87457e-07 2.6711e-06)
(0.00110117 -3.56847e-06 -1.85024e-05 0.000183252 -4.89836e-07 2.69929e-06)
(0.00110874 -3.81125e-06 -1.86833e-05 0.00018463 -4.9998e-07 2.72829e-06)
(0.00111593 -4.06126e-06 -1.88566e-05 0.000186009 -5.15537e-07 2.75676e-06)
(0.00112276 -4.34164e-06 -1.90193e-05 0.000187395 -5.29633e-07 2.78275e-06)
(0.00112928 -4.66587e-06 -1.91722e-05 0.000188788 -5.37385e-07 2.80561e-06)
(0.00113552 -5.02445e-06 -1.93233e-05 0.000190172 -5.38794e-07 2.82764e-06)
(0.00114151 -5.40392e-06 -1.94814e-05 0.000191528 -5.34874e-07 2.85139e-06)
(0.00114733 -5.78535e-06 -1.96478e-05 0.000192856 -5.29847e-07 2.87718e-06)
(0.00115309 -6.14656e-06 -1.98195e-05 0.000194165 -5.29807e-07 2.90405e-06)
(0.00115882 -6.47979e-06 -1.99918e-05 0.000195462 -5.36584e-07 2.93064e-06)
(0.00116443 -6.80623e-06 -2.0156e-05 0.000196746 -5.43486e-07 2.95495e-06)
(0.00116985 -7.14719e-06 -2.0305e-05 0.000198018 -5.43744e-07 2.97528e-06)
(0.0011751 -7.49644e-06 -2.04477e-05 0.00019927 -5.38413e-07 2.99313e-06)
(0.0011803 -7.83521e-06 -2.06004e-05 0.000200498 -5.3205e-07 3.01146e-06)
(0.00118554 -8.14258e-06 -2.07716e-05 0.000201692 -5.2629e-07 3.03152e-06)
(0.00119091 -8.39525e-06 -2.09589e-05 0.000202846 -5.18559e-07 3.05216e-06)
(0.00119648 -8.57022e-06 -2.11564e-05 0.000203953 -5.06122e-07 3.07186e-06)
(0.00120207 -8.64955e-06 -2.13478e-05 0.000205005 -4.87192e-07 3.08842e-06)
(0.00120746 -8.61668e-06 -2.1515e-05 0.000205992 -4.6024e-07 3.09964e-06)
(0.00121253 -8.45948e-06 -2.16642e-05 0.000206894 -4.24124e-07 3.10723e-06)
(0.00121725 -8.16947e-06 -2.1822e-05 0.000207679 -3.78066e-07 3.11614e-06)
(0.00122157 -7.7275e-06 -2.20011e-05 0.000208335 -3.26086e-07 3.12883e-06)
(0.00122537 -7.0908e-06 -2.21798e-05 0.000208892 -2.82879e-07 3.14174e-06)
(0.00122854 -6.22787e-06 -2.23348e-05 0.000209387 -2.61476e-07 3.15106e-06)
(0.00123109 -5.20283e-06 -2.24626e-05 0.000209842 -2.53856e-07 3.15667e-06)
(0.00123304 -4.11344e-06 -2.25668e-05 0.000210278 -2.44164e-07 3.15991e-06)
(0.00123433 -2.97136e-06 -2.26409e-05 0.0002107 -2.26346e-07 3.16186e-06)
(0.00123477 -1.70886e-06 -2.26695e-05 0.000211105 -2.03515e-07 3.16337e-06)
(0.00123432 -4.70968e-07 -2.26428e-05 0.000211491 -1.79734e-07 3.16503e-06)
(0.00123316 1.5748e-07 -2.25653e-05 0.000211858 -1.60228e-07 3.16697e-06)
(0.00123152 -8.0278e-08 -2.24461e-05 0.000212202 -1.45589e-07 3.16904e-06)
(0.00122975 3.16319e-07 -2.23095e-05 0.000212503 -1.1465e-07 3.17017e-06)
(0.00122822 3.00723e-06 -2.21847e-05 0.000212734 -4.45001e-08 3.16927e-06)
(0.00122728 6.0457e-06 -2.21051e-05 0.000212865 4.03255e-08 3.16758e-06)
(1.12417e-06 -1.62698e-10 -5.61288e-09 2.45366e-10 -9.73077e-10 1.08539e-08)
(7.18732e-06 -8.33855e-09 -3.20021e-08 1.56806e-08 -2.55464e-08 8.09028e-08)
(1.49616e-05 -3.79146e-08 -6.11249e-08 1.01417e-07 -1.11035e-07 1.95035e-07)
(2.32898e-05 -8.87097e-08 -8.87097e-08 3.35651e-07 -2.79823e-07 3.35651e-07)
(3.23719e-05 -1.59715e-07 -1.15601e-07 8.04554e-07 -5.38767e-07 4.87879e-07)
(4.27843e-05 -2.61317e-07 -1.47718e-07 1.59225e-06 -8.8294e-07 6.4076e-07)
(5.51435e-05 -4.13565e-07 -2.0085e-07 2.77171e-06 -1.2993e-06 7.87593e-07)
(7.00287e-05 -6.35781e-07 -3.04753e-07 4.39873e-06 -1.77009e-06 9.25579e-07)
(8.79563e-05 -9.3326e-07 -5.01118e-07 6.50662e-06 -2.27512e-06 1.05482e-06)