/*--------------------------------*- C++ -*----------------------------------*\
  =========                 |
  \\      /  F ield         | OpenFOAM: The Open Source CFD Toolbox
   \\    /   O peration     | Website:  https://openfoam.org
    \\  /    A nd           | Version:  6
     \\/     M anipulation  |
\*---------------------------------------------------------------------------*/
FoamFile
{
    version     2.0;
    format      ascii;
    class       volSymmTensorField;
    location    "98.61";
    object      turbulenceProperties:R;
}
// * * * * * * * * * * * * * * * * * * * * * * * * * * * * * * * * * * * * * //

dimensions      [0 2 -2 0 0 0 0];

internalField   nonuniform List<symmTensor> 
15625
(
(1.4237771333753553e-07 -3.3783131593589586e-11 -3.378313159358953e-11 1.7210931063516998e-11 -8.478902311818687e-14 1.7210931063517043e-11)
(5.740705346536954e-07 -8.619633192267898e-10 -1.0133563028578236e-10 5.473623315427167e-10 -4.6064310254848e-11 6.830747131499673e-11)
(8.939922075218054e-07 -2.9659950830332757e-09 -1.1622251837229653e-10 3.2448987130961938e-09 -3.12970391726511e-10 1.4728253336451693e-10)
(1.1241680291981658e-06 -5.612877799336564e-09 -1.626980609621942e-10 1.0853866007081845e-08 -9.730769418676828e-10 2.453656002227822e-10)
(1.321138372277427e-06 -8.206670495736332e-09 -2.540695674377678e-10 2.685854802084322e-08 -2.097372727726e-09 3.5161747618989496e-10)
(1.52603453915411e-06 -1.0973202131134964e-08 -3.6855548458729076e-10 5.487397641148526e-08 -3.6747612363679235e-09 4.583838774970133e-10)
(1.765451143557855e-06 -1.4800301476917213e-08 -5.169946715332278e-10 9.818266839494474e-08 -5.645172208495258e-09 5.61958292789613e-10)
(2.057110336940531e-06 -2.0845919276374437e-08 -7.724007442122775e-10 1.59406303873384e-07 -7.915830095648745e-09 6.606293451078982e-10)
(2.4138498842190645e-06 -2.998973067810552e-08 -1.2749110859445479e-09 2.402590656041795e-07 -1.0375006237153627e-08 7.548811027944918e-10)
(2.8456966717714747e-06 -4.237822837913085e-08 -2.2117691113768947e-09 3.4147486413174323e-07 -1.2911591730146171e-08 8.465633150913153e-10)
(3.3603636562216075e-06 -5.712216758287944e-08 -3.776703997097053e-09 4.628866349764475e-07 -1.542775982461088e-08 9.37941337161262e-10)
(3.963204280067177e-06 -7.225116280244346e-08 -6.134985239475995e-09 6.036628237533139e-07 -1.784676366215462e-08 1.0308614434786813e-09)
(4.656004899014709e-06 -8.475063401590009e-08 -9.389277547473511e-09 7.62370305705487e-07 -2.0115264065598907e-08 1.126008781139301e-09)
(5.436553875357341e-06 -9.096327203668993e-08 -1.3549290628058585e-08 9.372594006745415e-07 -2.220010948795991e-08 1.2236750015164608e-09)
(6.299445398064047e-06 -8.704092609449216e-08 -1.8541677628788156e-08 1.1265786597539196e-06 -2.408897841543884e-08 1.3236345299585612e-09)
(7.235114443226183e-06 -6.93493965270602e-08 -2.4200008733976238e-08 1.3286100430834226e-06 -2.5791985229884913e-08 1.4246314348396098e-09)
(8.230994256566771e-06 -3.5118149395550697e-08 -3.030016842887442e-08 1.5417880103310185e-06 -2.731679352377858e-08 1.52411933083033e-09)
(9.272777719995617e-06 1.753201457022319e-08 -3.6584837588260654e-08 1.764764573305921e-06 -2.8665938363791436e-08 1.6188092282123268e-09)
(1.034492805369294e-05 8.905006890225317e-08 -4.279799273256602e-08 1.9962642444336056e-06 -2.98321250460194e-08 1.7059666733470407e-09)
(1.1431802980421758e-05 1.7891520963863712e-07 -4.870362434631996e-08 2.234992115343139e-06 -3.080172358687604e-08 1.783583196140676e-09)
(1.2518950065736753e-05 2.852931374294787e-07 -5.412248672580981e-08 2.4795936425764813e-06 -3.155294844829416e-08 1.8511064095047911e-09)
(1.359284512879993e-05 4.056349191386471e-07 -5.891368122528698e-08 2.7285459316241427e-06 -3.206725189158772e-08 1.9084978053081353e-09)
(1.4642570186225544e-05 5.366958743353581e-07 -6.299378800880969e-08 2.9803410353533804e-06 -3.233451218041447e-08 1.956272420738397e-09)
(1.565852842124407e-05 6.749257488475397e-07 -6.63274545579644e-08 3.2332106145627966e-06 -3.234564895316545e-08 1.9953820534063815e-09)
(1.6634217074708727e-05 8.166898514986997e-07 -6.89415122937551e-08 3.4854427343532084e-06 -3.209288333028046e-08 2.0273582960988667e-09)
(1.7564443978065697e-05 9.585546093982643e-07 -7.088672469761816e-08 3.7352364430687155e-06 -3.15822247673777e-08 2.0542048953932667e-09)
(1.8446300047836443e-05 1.0974803610494389e-06 -7.224021646258893e-08 3.980925932514275e-06 -3.083581541197987e-08 2.078454832904287e-09)
(1.9277920226732785e-05 1.2308157545502052e-06 -7.308755647430594e-08 4.220945253365236e-06 -2.988281623382002e-08 2.1023721768195532e-09)
(2.0059369073837673e-05 1.356509104907537e-06 -7.352343114455453e-08 4.4540715336579585e-06 -2.875925077208772e-08 2.1278474914425013e-09)
(2.0790989133303634e-05 1.472796444998911e-06 -7.363262644835667e-08 4.679224514380187e-06 -2.7505980424013323e-08 2.1561749597430394e-09)
(2.1474734335085298e-05 1.5785469610621788e-06 -7.348325545713955e-08 4.89593713118366e-06 -2.616806948776868e-08 2.1877883693427507e-09)
(2.2112439063505403e-05 1.6727447532150027e-06 -7.314004608006386e-08 5.1037127514044e-06 -2.4782176155731527e-08 2.2228678945025493e-09)
(2.2706860149201206e-05 1.7547922065037832e-06 -7.266115315253613e-08 5.302372498364655e-06 -2.3361577046244606e-08 2.2612437713113757e-09)
(2.326113062030441e-05 1.8242801689273726e-06 -7.210314464788921e-08 5.491856500162025e-06 -2.1917822006484442e-08 2.3029462843671585e-09)
(2.3778324279218795e-05 1.8812300574391717e-06 -7.151653730483835e-08 5.6721301509308805e-06 -2.046860006934197e-08 2.348867109832017e-09)
(2.4261766599584986e-05 1.9258320107002533e-06 -7.094941628804513e-08 5.843267872092327e-06 -1.903269453934691e-08 2.4000134574329397e-09)
(2.4714335646100138e-05 1.958519510850087e-06 -7.043605591255262e-08 6.005462967252586e-06 -1.7628276244623657e-08 2.4564803234501856e-09)
(2.513896331543061e-05 1.9798756659766917e-06 -7.000472142355833e-08 6.159048727218677e-06 -1.62726993323682e-08 2.517950396373008e-09)
(2.553838752752434e-05 1.9906566905679234e-06 -6.968390020957793e-08 6.3044477795887285e-06 -1.4979336618777946e-08 2.5837715164281537e-09)
(2.591529244362945e-05 1.9917920098867104e-06 -6.950222484737098e-08 6.442213006950165e-06 -1.37574054183532e-08 2.6529927150963584e-09)
(2.6272265923371297e-05 1.9842845638089836e-06 -6.948095080263659e-08 6.57286985596587e-06 -1.2614052619770679e-08 2.7250303534593878e-09)
(2.661194195331625e-05 1.969245340907526e-06 -6.962445478106343e-08 6.6969804231374915e-06 -1.1550909505613735e-08 2.8002071116784975e-09)
(2.693703199312949e-05 1.947817232474792e-06 -6.993469233457141e-08 6.8151157037434155e-06 -1.0570940599139717e-08 2.8789212344972434e-09)
(2.7251080634105005e-05 1.9210514006259675e-06 -7.041216818053342e-08 6.928077112174022e-06 -9.686466107758985e-09 2.9614630254792655e-09)
(2.7557832569781503e-05 1.889993556838712e-06 -7.105625226441351e-08 7.036713642785664e-06 -8.913303473329931e-09 3.0480290485916824e-09)
(2.7860203450916485e-05 1.8556542632413833e-06 -7.18549700823777e-08 7.141848492906724e-06 -8.251287642242022e-09 3.138240223241207e-09)
(2.816037078308888e-05 1.8189916702536617e-06 -7.278487417040241e-08 7.244322067505511e-06 -7.68331275208724e-09 3.231156868688333e-09)
(2.846013096448798e-05 1.7808619002519932e-06 -7.381636663057206e-08 7.344944865351152e-06 -7.198154104679939e-09 3.3260672135248652e-09)
(2.8760499010371445e-05 1.7416937331296484e-06 -7.490539449654266e-08 7.4445255040839035e-06 -6.805559163765147e-09 3.4232442268448592e-09)
(2.906198659421082e-05 1.701824741323167e-06 -7.600293475223087e-08 7.543789520591329e-06 -6.517603939448213e-09 3.522921652815808e-09)
(2.9364268085850162e-05 1.6608942799177574e-06 -7.706067999401618e-08 7.643449164812433e-06 -6.316554026382232e-09 3.6236150373830257e-09)
(2.9666058229724604e-05 1.6181064374159408e-06 -7.802906153867175e-08 7.744087989749019e-06 -6.164290844725363e-09 3.722519552986715e-09)
(2.9966636045921384e-05 1.5726254800398939e-06 -7.888620743052065e-08 7.846009609806538e-06 -6.021560607182259e-09 3.8181884742572124e-09)
(3.0266154896047392e-05 1.523646884093524e-06 -7.967415773593971e-08 7.948686070911487e-06 -5.8493107007862084e-09 3.912293697738633e-09)
(3.056503926980825e-05 1.4704108229841678e-06 -8.04463384005576e-08 8.05149079087487e-06 -5.612756490969881e-09 4.007063044911849e-09)
(3.086409531617638e-05 1.4129005669847105e-06 -8.126539911364756e-08 8.153772595469744e-06 -5.3289368666606424e-09 4.105097034034896e-09)
(3.116439099809224e-05 1.3515328026529585e-06 -8.220024872749522e-08 8.254867542738086e-06 -5.045410033046035e-09 4.209247095701182e-09)
(3.146749972120009e-05 1.2870599558939995e-06 -8.330497406439904e-08 8.35454928871156e-06 -4.807887748471958e-09 4.320513982033888e-09)
(3.177607664441795e-05 1.2209203433575737e-06 -8.459923008897443e-08 8.453570994287593e-06 -4.655549160696795e-09 4.435818266420471e-09)
(3.209273182181332e-05 1.1546414450782737e-06 -8.609132870206589e-08 8.552796118283971e-06 -4.62249963529714e-09 4.551500066086995e-09)
(3.2418489685352164e-05 1.0891424211813429e-06 -8.77198460660108e-08 8.653022786879476e-06 -4.689428324249648e-09 4.664642003621805e-09)
(3.275323483735607e-05 1.0250293976723514e-06 -8.937970753561123e-08 8.754956401203533e-06 -4.804602245574842e-09 4.772666880719377e-09)
(3.309688830913585e-05 9.625124117047965e-07 -9.099303448122312e-08 8.858772761183257e-06 -4.907124653032661e-09 4.87471974769506e-09)
(3.3449250802443806e-05 9.008841855507553e-07 -9.25520635497517e-08 8.963271761023989e-06 -4.917454759786656e-09 4.974094376608496e-09)
(3.3810074424645506e-05 8.393421880480821e-07 -9.406053390776594e-08 9.067042380239705e-06 -4.761562541999739e-09 5.074713467318199e-09)
(3.417946309104629e-05 7.777432022222032e-07 -9.554054197745449e-08 9.169177936189791e-06 -4.495986734756199e-09 5.179699502915701e-09)
(3.4557583530600963e-05 7.164428102666704e-07 -9.702664084892443e-08 9.269065756362063e-06 -4.270571665672709e-09 5.291586244162356e-09)
(3.494484568228103e-05 6.557585526627629e-07 -9.85448151601277e-08 9.366674548887379e-06 -4.200979947953316e-09 5.411056962851045e-09)
(3.53426181563823e-05 5.958040513124817e-07 -1.0009316874578937e-07 9.463800254847884e-06 -4.284588005198982e-09 5.533178028123234e-09)
(3.5752404263945425e-05 5.366569351650201e-07 -1.0166456236458207e-07 9.562589499329633e-06 -4.495819251452652e-09 5.651993936645281e-09)
(3.617441191038993e-05 4.783499944909651e-07 -1.032551513237211e-07 9.664445764890223e-06 -4.802901609353465e-09 5.7648732823676385e-09)
(3.660786629973478e-05 4.2084762282226805e-07 -1.0486480353885039e-07 9.770149843557472e-06 -5.16841351560542e-09 5.8722471839063e-09)
(3.705191383229062e-05 3.639295418793427e-07 -1.0649029511801633e-07 9.879982498285078e-06 -5.538058293492049e-09 5.974882966207351e-09)
(3.750588477116538e-05 3.0660088056034207e-07 -1.0811640627039505e-07 9.992275433308851e-06 -5.7937290569406485e-09 6.074510649278963e-09)
(3.796898140098395e-05 2.4771227989389075e-07 -1.0972691653207267e-07 1.0104787284806808e-05 -5.8021799271991104e-09 6.173145619794583e-09)
(3.843951651468532e-05 1.8777254744005412e-07 -1.1139467142469762e-07 1.0215469216190466e-05 -5.562156158787983e-09 6.273419024297689e-09)
(3.8914561872054275e-05 1.2929761515920522e-07 -1.1329814170146745e-07 1.0322469226365791e-05 -5.230450144388876e-09 6.3786437988772415e-09)
(3.939130060525394e-05 7.489686075103461e-08 -1.155764460487925e-07 1.0424355933988401e-05 -4.959927396262099e-09 6.490955445297199e-09)
(3.986845677720539e-05 2.6691599737686175e-08 -1.1809016285519259e-07 1.0522263707211958e-05 -4.808084394950869e-09 6.605242582326871e-09)
(4.0344987692352214e-05 -1.3322088130469218e-08 -1.2059738706486743e-07 1.0618207824250465e-05 -4.799165245049463e-09 6.713703282104737e-09)
(4.0818674966283035e-05 -4.4465254293414155e-08 -1.2293606281099762e-07 1.0713916845686163e-05 -4.927933826424081e-09 6.812579834141089e-09)
(4.128522747211995e-05 -6.810670074745773e-08 -1.2507120305259295e-07 1.0810581070993903e-05 -5.143180952411673e-09 6.904470423275394e-09)
(4.174050058960992e-05 -8.584736258920737e-08 -1.269813461493178e-07 1.0909214497308599e-05 -5.390129979270209e-09 6.992454075488325e-09)
(4.218454635086612e-05 -9.946696013015952e-08 -1.2867541133768058e-07 1.1009808372434427e-05 -5.62771196009088e-09 7.078768406478391e-09)
(4.2619324829127266e-05 -1.1085536440105462e-07 -1.3017664041458994e-07 1.1111863527627282e-05 -5.820680497821886e-09 7.165274206783731e-09)
(4.30459756891699e-05 -1.2158809172181813e-07 -1.3152880620199057e-07 1.121480444364732e-05 -5.952599653354854e-09 7.252401884549925e-09)
(4.346430277192713e-05 -1.3258003070711673e-07 -1.3281568894384516e-07 1.1318007750286389e-05 -6.0446431954588604e-09 7.337823070239479e-09)
(4.387345798312248e-05 -1.4461667096147144e-07 -1.3412183036072273e-07 1.1420747017891727e-05 -6.117382065040545e-09 7.419196628924602e-09)
(4.4270022671687974e-05 -1.5780903727043688e-07 -1.3548090548485716e-07 1.1522045481073149e-05 -6.1400042446429166e-09 7.49806038929263e-09)
(4.464903746015653e-05 -1.7188565065023507e-07 -1.3689817286504833e-07 1.1620763274062278e-05 -6.052426231124352e-09 7.578158955668287e-09)
(4.5007303560239416e-05 -1.8624832706774457e-07 -1.38376061545969e-07 1.171625698440397e-05 -5.860775628237478e-09 7.662091168973983e-09)
(4.5346268906498464e-05 -1.9961132198980183e-07 -1.3991301834244446e-07 1.1809166146598517e-05 -5.7212621135414235e-09 7.749814139438437e-09)
(4.566799333031176e-05 -2.107506997699325e-07 -1.4150083029155955e-07 1.190039877973064e-05 -5.7957138577566695e-09 7.84057537636016e-09)
(4.597409190988654e-05 -2.204139302101873e-07 -1.4306857547214118e-07 1.1991705840109896e-05 -6.049403005611821e-09 7.930024084421147e-09)
(4.6265954828215536e-05 -2.3056674680868722e-07 -1.4450632096953983e-07 1.2085377815511361e-05 -6.326695922649757e-09 8.011570831462746e-09)
(4.654464614306252e-05 -2.4278307215826936e-07 -1.4576223921792577e-07 1.2182237506537413e-05 -6.500543550175576e-09 8.082690110727491e-09)
(4.681031142803469e-05 -2.576339070727865e-07 -1.469201949845873e-07 1.2279654291280557e-05 -6.518060584902956e-09 8.150295675965467e-09)
(4.706347090179268e-05 -2.75404624495751e-07 -1.480829026062109e-07 1.2374699133345626e-05 -6.35037783770509e-09 8.222244465477504e-09)
(4.73087017826799e-05 -2.948028788698292e-07 -1.493299534244518e-07 1.2466572292595892e-05 -6.113175543497225e-09 8.301031137783054e-09)
(4.755298832545625e-05 -3.1362350570366747e-07 -1.5072812973435138e-07 1.2555706855110098e-05 -6.005899784262299e-09 8.386082235174798e-09)
(4.779892610401446e-05 -3.3097114280293283e-07 -1.522474597445555e-07 1.2642847520526382e-05 -6.101016246362831e-09 8.47349455629722e-09)
(4.804035765036246e-05 -3.4858974861088367e-07 -1.536682337399308e-07 1.2729324720064746e-05 -6.2160126429010755e-09 8.552986666331735e-09)
(4.827118457002766e-05 -3.682723529912961e-07 -1.5479439058518816e-07 1.281625681889221e-05 -6.165450180844539e-09 8.615601751534642e-09)
(4.849397386327639e-05 -3.896160480943573e-07 -1.5579922339668715e-07 1.2902406400516502e-05 -5.990081680992664e-09 8.669131967000273e-09)
(4.871533543363939e-05 -4.112092427060586e-07 -1.570229313223281e-07 1.2985511842130432e-05 -5.832150094216702e-09 8.72888922701219e-09)
(4.8940650848304934e-05 -4.310352886036685e-07 -1.5861954022016911e-07 1.3064686589342637e-05 -5.754418819531021e-09 8.799439388064576e-09)
(4.91736972786155e-05 -4.46268844431712e-07 -1.6047599161454928e-07 1.3141111455669943e-05 -5.704727337681118e-09 8.86998431051585e-09)
(4.94156372189275e-05 -4.5466091241904853e-07 -1.6243048453935944e-07 1.3215720569670307e-05 -5.619100480263929e-09 8.930086801666742e-09)
(4.965659961735082e-05 -4.571360668652916e-07 -1.6420848126006496e-07 1.3287700993618746e-05 -5.424562869861248e-09 8.97731831803499e-09)
(4.988387387003692e-05 -4.554625848458675e-07 -1.655241490473415e-07 1.3355642595303427e-05 -5.0478794643105435e-09 9.011840766881331e-09)
(5.009349085264389e-05 -4.500541681585002e-07 -1.6653408089462312e-07 1.3416834044973585e-05 -4.479636042488027e-09 9.039741262867643e-09)
(5.0288747784152576e-05 -4.4017407843608753e-07 -1.677686511556117e-07 1.3467429582190278e-05 -3.765012880947395e-09 9.072113627320108e-09)
(5.0470088219259774e-05 -4.2373332631440634e-07 -1.6949322101880172e-07 1.3506094556082185e-05 -3.0162585195462138e-09 9.113566885284368e-09)
(5.063088174831652e-05 -3.957527256410236e-07 -1.7133940206723882e-07 1.3537247466368399e-05 -2.4893140604662476e-09 9.153547360959012e-09)
(5.0764679150870555e-05 -3.5206857930012615e-07 -1.7290818987856412e-07 1.356571787875597e-05 -2.396466183551798e-09 9.181193620074755e-09)
(5.087257500846788e-05 -2.9667076719122303e-07 -1.7418893125877805e-07 1.359334694573703e-05 -2.5279484034824486e-09 9.197789058568472e-09)
(5.09582438807373e-05 -2.364924295538044e-07 -1.7531095746263211e-07 1.3620807964795363e-05 -2.5195541916593544e-09 9.209219722010425e-09)
(5.101710775604605e-05 -1.7296327576499844e-07 -1.7618535159022006e-07 1.3647720289842495e-05 -2.2708271930338154e-09 9.218431273893376e-09)
(5.1036960554556526e-05 -1.0242148465788345e-07 -1.7652026436669967e-07 1.3672735044690027e-05 -1.9278401588815204e-09 9.225628904826002e-09)
(5.1013358887991565e-05 -3.222238350758183e-08 -1.7616171204402028e-07 1.3694918795503684e-05 -1.619435797191058e-09 9.23128543571985e-09)
(5.095857759003693e-05 7.427643039310288e-09 -1.7525999016198752e-07 1.3714301861386889e-05 -1.416542058520064e-09 9.236614790342847e-09)
(5.088637495154464e-05 2.457428717032791e-09 -1.7398936586246839e-07 1.3730984384588556e-05 -1.3163554730801345e-09 9.242385566886716e-09)
(5.0806798263582915e-05 2.60306768166074e-08 -1.724503517578523e-07 1.3744854843337504e-05 -1.0120563960877904e-09 9.246861977618722e-09)
(5.07302187496053e-05 1.593421240098102e-07 -1.7077095281751282e-07 1.3755629508215908e-05 -1.7600975268134816e-10 9.247913947045725e-09)
(5.0678302327513886e-05 3.059634214364264e-07 -1.6952762113544645e-07 1.376196220967922e-05 8.205855702053981e-10 9.24685101666597e-09)
(5.740705346536953e-07 -1.013356302857824e-10 -8.619633192267896e-10 6.83074713149968e-11 -4.60643102548481e-11 5.473623315427164e-10)
(2.989494874645706e-06 -3.954321466993793e-09 -3.954321466993792e-09 3.7138295879176586e-09 -1.7517351623848741e-09 3.7138295879176574e-09)
(5.276489018631868e-06 -1.5504962609188756e-08 -6.278294824532917e-09 2.3864167702646928e-08 -9.170053360702764e-09 9.015011272795957e-09)
(7.187318692819375e-06 -3.200209884159399e-08 -8.33855005280548e-09 8.090279039023673e-08 -2.554644480906166e-08 1.56805692349927e-08)
(8.96395503362098e-06 -5.094483588521333e-08 -1.0620217369722321e-08 1.9951825447974863e-07 -5.2163590853519835e-08 2.2923409762319208e-08)
(1.0860772214002816e-05 -7.451320528845537e-08 -1.3347449066652527e-08 4.050162383724115e-07 -8.870554280092343e-08 3.0203467643964146e-08)
(1.3073152690927032e-05 -1.0902456109054553e-07 -1.7391544358351117e-08 7.201068808951787e-07 -1.3377701370911617e-07 3.721700911764716e-08)
(1.5748532519895912e-05 -1.6207833950339958e-07 -2.501272739388106e-08 1.1627875326665393e-06 -1.853325187480496e-07 4.385010031312971e-08)
(1.900234604602618e-05 -2.388113553940644e-07 -3.984416134396673e-08 1.7446023338536568e-06 -2.4093946275944995e-07 5.011815842090036e-08)
(2.2928639561869517e-05 -3.384469586054045e-07 -6.654776488501036e-08 2.4703204552281645e-06 -2.982008245356632e-07 5.614240611454849e-08)
(2.760067016719328e-05 -4.5228770176657197e-07 -1.0979821082194753e-07 3.338503729618521e-06 -3.5499606066342494e-07 6.206760850303453e-08)
(3.306940357120637e-05 -5.635672307228058e-07 -1.734847142304803e-07 4.343146320192741e-06 -4.0964931998533986e-07 6.801743402848166e-08)
(3.935255785436271e-05 -6.47862500059181e-07 -2.5996361444680563e-07 5.474124292250606e-06 -4.610034706656424e-07 7.407036329199807e-08)
(4.643047576758827e-05 -6.764267043284429e-07 -3.692447873696769e-07 6.719436906502831e-06 -5.084092775487319e-07 8.025812930640266e-08)
(5.425398086835617e-05 -6.195969116691695e-07 -4.993353198212015e-07 8.067314987925348e-06 -5.516415035058049e-07 8.656155323512429e-08)
(6.273607723286172e-05 -4.4994714617190115e-07 -6.460945818234732e-07 9.50634507289324e-06 -5.908298734936699e-07 9.28857708252699e-08)
(7.176249947832301e-05 -1.4691118910093775e-07 -8.040180419741118e-07 1.102599782428497e-05 -6.260460032653551e-07 9.90650919484379e-08)
(8.12032460716579e-05 3.0316084639359527e-07 -9.668353622342607e-07 1.2617103777519914e-05 -6.57265150483229e-07 1.0489726560227063e-07)
(9.091755786914579e-05 9.030962913856423e-07 -1.1284028461255098e-06 1.4270866350662497e-05 -6.84278887748709e-07 1.1022167979407794e-07)
(0.00010076387747495237 1.6483784304696117e-06 -1.283033856825624e-06 1.5978370095786494e-05 -7.067699069194805e-07 1.1491943797835146e-07)
(0.00011061151422914229 2.5245579344598987e-06 -1.4262673648096026e-06 1.773043446440842e-05 -7.242934688375934e-07 1.1894745347306463e-07)
(0.00012033831149713286 3.5117541438924248e-06 -1.5545953401541796e-06 1.9516655629895844e-05 -7.364443462198852e-07 1.2229947760372473e-07)
(0.0001298458973308003 4.584866774416537e-06 -1.6659921253223862e-06 2.132666116068226e-05 -7.429392437000476e-07 1.2501554834742074e-07)
(0.00013904776850572466 5.716440004110144e-06 -1.7594978008606227e-06 2.3148218054237118e-05 -7.435721895025748e-07 1.2716730076525016e-07)
(0.00014788529538191145 6.8784392705846175e-06 -1.835543453537736e-06 2.4969519212125928e-05 -7.382427466774827e-07 1.288660110983097e-07)
(0.0001563116557849594 8.044158974735307e-06 -1.8951882383556367e-06 2.6778117449161843e-05 -7.271211945831194e-07 1.302446510532911e-07)
(0.00016430063661661913 9.189721331919488e-06 -1.940205542636653e-06 2.856253500022783e-05 -7.106884646407237e-07 1.314595072866944e-07)
(0.0001718352703100902 1.0293983202881117e-05 -1.9725172676165094e-06 3.0311873650651187e-05 -6.895584132423274e-07 1.326477377285265e-07)
(0.00017891581111571938 1.134018149218002e-05 -1.9942044114486843e-06 3.2017534784117606e-05 -6.644713490783944e-07 1.3392082234155229e-07)
(0.00018554507198122934 1.2313529295146832e-05 -2.0072051543011993e-06 3.367136911637682e-05 -6.362341046418266e-07 1.3536136522400598e-07)
(0.00019174055555730727 1.32039228001216e-05 -2.0132304854190564e-06 3.526881967036426e-05 -6.056875384966896e-07 1.3701080393141504e-07)
(0.0001975185577713101 1.400227328536251e-05 -2.013911424691217e-06 3.6804962743314176e-05 -5.73576692113355e-07 1.3889498312134463e-07)
(0.00020290345393707743 1.4703245827493102e-05 -2.0107118122687514e-06 3.827708907648775e-05 -5.403409510277096e-07 1.4101495276091816e-07)
(0.00020792306406064665 1.5303054090195755e-05 -2.0050568517480893e-06 3.96834820723867e-05 -5.063919909243918e-07 1.433789338343557e-07)
(0.00021260498684947467 1.5801285408663422e-05 -1.99821308850342e-06 4.1023185690792465e-05 -4.722048898240208e-07 1.4603030105587172e-07)
(0.0002169791372453274 1.6198868670589267e-05 -1.991387206420976e-06 4.229615582079671e-05 -4.382510602184997e-07 1.4901544423034932e-07)
(0.00022107114278547345 1.649868777275608e-05 -1.985431230779034e-06 4.3503113515752035e-05 -4.0490121401761446e-07 1.5232787900471395e-07)
(0.00022490701792647098 1.6704837007371637e-05 -1.9810473695410537e-06 4.464574234649315e-05 -3.7246929497231423e-07 1.559379128716446e-07)
(0.00022851134589421015 1.682281540394123e-05 -1.978972246287024e-06 4.572615727315391e-05 -3.412370207995775e-07 1.5981406170132463e-07)
(0.00023190852881140646 1.6859535329759033e-05 -1.9799754024669176e-06 4.6747219852942897e-05 -3.1144703996250445e-07 1.6392426033108212e-07)
(0.00023512191683066334 1.6822505013706898e-05 -1.984622729298846e-06 4.7711933614787826e-05 -2.833408492919556e-07 1.6824833135006495e-07)
(0.00023817485031669963 1.6720154038902384e-05 -1.9930179039539735e-06 4.8624370530119e-05 -2.5712496435949536e-07 1.7279651660499905e-07)
(0.00024109146619272052 1.656116391484915e-05 -2.0052050568556854e-06 4.9488756377586647e-05 -2.3301229189670271e-07 1.7757824232109323e-07)
(0.000243904336591181 1.6353518618596487e-05 -2.0212398598073343e-06 5.031092647902365e-05 -2.1119215574279944e-07 1.825846773673588e-07)
(0.000246648180715995 1.610517025425378e-05 -2.0411686637998362e-06 5.109702312376166e-05 -1.9185056424044004e-07 1.8779796696597703e-07)
(0.0002493497917031094 1.5824097032654955e-05 -2.064809506538093e-06 5.185273300297385e-05 -1.7495396701791944e-07 1.9320165894008726e-07)
(0.0002520288259047996 1.5518175829678267e-05 -2.0917526047736007e-06 5.258358572696032e-05 -1.6023282481710902e-07 1.9878309321596927e-07)
(0.0002547016097768127 1.5194599463882431e-05 -2.1214004547951787e-06 5.3295075441732326e-05 -1.4752156516002292e-07 2.045249443111039e-07)
(0.000257377776049899 1.4857468029702175e-05 -2.1526747928881037e-06 5.3993295822064e-05 -1.3700820491262679e-07 2.1040411490473688e-07)
(0.0002600625214816329 1.4510293644073902e-05 -2.1843590979376925e-06 5.468383300619241e-05 -1.2891412552713556e-07 2.1638575395883592e-07)
(0.0002627533585381403 1.41514579919574e-05 -2.2154134184325714e-06 5.537150515739059e-05 -1.228302223653216e-07 2.2238531765289413e-07)
(0.000265439099807592 1.3776223705139877e-05 -2.24487133365784e-06 5.605977045347737e-05 -1.1791884889084787e-07 2.282758553754649e-07)
(0.00026811333065574253 1.3379658960497156e-05 -2.2722874592465893e-06 5.675083585376942e-05 -1.1340148336430456e-07 2.339965010054744e-07)
(0.0002707768417280764 1.295733564750442e-05 -2.2983970619712365e-06 5.744277694502764e-05 -1.0869882112180193e-07 2.3963494957384416e-07)
(0.0002734327336012718 1.2504996457095762e-05 -2.324160722816145e-06 5.8133231354214324e-05 -1.0331586776619585e-07 2.4530689046724287e-07)
(0.0002760874371154843 1.2021756409958722e-05 -2.3508271380065776e-06 5.8819410453095795e-05 -9.746943718899507e-08 2.5115453839874306e-07)
(0.0002787496672580426 1.150868058858292e-05 -2.3798317638045227e-06 5.9498304089933036e-05 -9.179524411139665e-08 2.5733745064109723e-07)
(0.00028143313183785177 1.0969567112811533e-05 -2.412352746386507e-06 6.016873649405787e-05 -8.693804086150492e-08 2.6391241869445327e-07)
(0.00028416225738874424 1.0413922461437253e-05 -2.4489615703680383e-06 6.083368104279463e-05 -8.352752097649358e-08 2.7070958555243425e-07)
(0.0002869612244128968 9.852141349313486e-06 -2.490006735192467e-06 6.149650803082548e-05 -8.212290312968606e-08 2.775270478013928e-07)
(0.00028983995058008574 9.29166708875898e-06 -2.534360578877068e-06 6.21604426398129e-05 -8.24146153184688e-08 2.8420709472322444e-07)
(0.0002927981406047005 8.738614964297818e-06 -2.5799673316660153e-06 6.2828243792659e-05 -8.356659117985568e-08 2.9061247628517314e-07)
(0.000295835499522268 8.196623944529756e-06 -2.6252158151591217e-06 6.350081234558004e-05 -8.465892892496942e-08 2.966956700387415e-07)
(0.00029894986870881513 7.663587412670046e-06 -2.6696497477363558e-06 6.417397179231914e-05 -8.46251917149265e-08 3.026247468879263e-07)
(0.0003021386338378495 7.136658870591723e-06 -2.7130133388397667e-06 6.48427332642071e-05 -8.248731706221187e-08 3.0860085021599384e-07)
(0.0003054035974324665 6.614312702026854e-06 -2.7556346944422416e-06 6.55039282006946e-05 -7.900710545204618e-08 3.1479067725572946e-07)
(0.00030874805416549096 6.096223249118948e-06 -2.7982367639342212e-06 6.615529550080755e-05 -7.618985883365811e-08 3.2133504738490424e-07)
(0.00031217670046070734 5.5826032976271865e-06 -2.8414110204482174e-06 6.679700744450954e-05 -7.563169693514844e-08 3.2827634351977636e-07)
(0.0003157002868574425 5.0749299616351265e-06 -2.8853080003581784e-06 6.743702307729445e-05 -7.749148232940258e-08 3.3535777145226384e-07)
(0.00031933029448286663 4.574941372829191e-06 -2.929989191224053e-06 6.80848164629562e-05 -8.164203939446432e-08 3.422681547767539e-07)
(0.0003230674202805474 4.08365996806589e-06 -2.9753832728347004e-06 6.874708368894547e-05 -8.765836779362768e-08 3.488718022713681e-07)
(0.0003269042787589099 3.6012272931640793e-06 -3.021319097134551e-06 6.942832947157536e-05 -9.484543024873126e-08 3.551950109071777e-07)
(0.0003308332787821628 3.1268498678629724e-06 -3.067621791847528e-06 7.013077861949954e-05 -1.0224176505403224e-07 3.612713777152963e-07)
(0.00033485041938484866 2.6557312193101925e-06 -3.1141626513682183e-06 7.084771756748982e-05 -1.0791507935490297e-07 3.6714292916333196e-07)
(0.0003389510423182536 2.1823432024517714e-06 -3.160855278912121e-06 7.156971116164637e-05 -1.0969862398094113e-07 3.728568681761467e-07)
(0.00034312014140874326 1.7100413988957475e-06 -3.2090219076709874e-06 7.228643261104581e-05 -1.0742375412309959e-07 3.7856825995658837e-07)
(0.00034732876147515365 1.2529978606237946e-06 -3.2616458100038288e-06 7.298625470077815e-05 -1.0331450780513436e-07 3.8455810486752596e-07)
(0.00035154949747065987 8.260788768684268e-07 -3.3210363151503388e-06 7.365978429794063e-05 -9.961219126587395e-08 3.910307222529392e-07)
(0.00035577312389322086 4.4249246016905705e-07 -3.3847951110656314e-06 7.4312295042277e-05 -9.756384559198645e-08 3.976827406383768e-07)
(0.00035999411986137536 1.1521101489445866e-07 -3.448773884483927e-06 7.495402867756079e-05 -9.807654833025697e-08 4.040235973734922e-07)
(0.00036419511648970237 -1.5071988066915182e-07 -3.5098928775814347e-06 7.559421328788374e-05 -1.013253865004535e-07 4.098098202886353e-07)
(0.0003683380932958656 -3.625388849385028e-07 -3.5667730898058345e-06 7.623994304068035e-05 -1.0633608129231019e-07 4.151867632210952e-07)
(0.0003723858676955214 -5.290720646266239e-07 -3.618296256516619e-06 7.689744952097779e-05 -1.1205165303837075e-07 4.20328384161462e-07)
(0.0003763364882101566 -6.619929110524166e-07 -3.6645837210122707e-06 7.756772636224952e-05 -1.1774375845337004e-07 4.2535334717005727e-07)
(0.00038020396432983334 -7.744776120739002e-07 -3.7063368103834665e-06 7.824925048663477e-05 -1.2282603440160803e-07 4.3035530527470947e-07)
(0.00038399667550930073 -8.779087983035141e-07 -3.7446719380853157e-06 7.893922231646481e-05 -1.2690627126396695e-07 4.353557990873984e-07)