/*--------------------------------*- C++ -*----------------------------------*\
| =========                 |                                                 |
| \\      /  F ield         | OpenFOAM: The Open Source CFD Toolbox           |
|  \\    /   O peration     | Version:  2306                                  |
|   \\  /    A nd           | Website:  www.openfoam.com                      |
|    \\/     M anipulation  |                                                 |
\*---------------------------------------------------------------------------*/
// * * * * * * * * * * * * * * * * * * * * * * * * * * * * * * * * * * * * * //
FoamFile
{
    version         2;
    format          ascii;
    class           volSymmTensorField;
    location        "98.61";
    object          Rrans;
}

dimensions      [ 0 2 -2 0 0 0 0 ];

internalField   nonuniform List<symmTensor> 
15625
(
(0.000299866 -4.61602e-06 -4.61602e-06 0.000299866 4.15482e-18 0.000299866)
(0.000340403 -4.10151e-06 -1.29425e-05 0.000340403 2.65813e-18 0.000340403)
(0.00041908 -4.20996e-06 -2.26198e-05 0.00041908 1.89641e-18 0.00041908)
(0.000523345 -4.4389e-06 -3.39808e-05 0.000523345 1.5969e-18 0.000523345)
(0.000641526 -4.65037e-06 -4.67338e-05 0.000641526 1.32e-18 0.000641526)
(0.000765087 -4.78729e-06 -6.04111e-05 0.000765087 1.08781e-18 0.000765087)
(0.0008885 -4.83751e-06 -7.45707e-05 0.0008885 9.14251e-19 0.0008885)
(0.00100848 -4.81172e-06 -8.88638e-05 0.00100848 7.84567e-19 0.00100848)
(0.00112331 -4.7292e-06 -0.000103042 0.00112331 6.85193e-19 0.00112331)
(0.00123225 -4.60905e-06 -0.000116945 0.00123225 6.06906e-19 0.00123225)
(0.00133515 -4.46653e-06 -0.000130477 0.00133515 5.42561e-19 0.00133515)
(0.00143221 -4.31342e-06 -0.000143591 0.00143221 4.89521e-19 0.00143221)
(0.00152376 -4.157e-06 -0.000156266 0.00152376 4.45415e-19 0.00152376)
(0.00161024 -4.00189e-06 -0.000168504 0.00161024 4.0647e-19 0.00161024)
(0.00169206 -3.85159e-06 -0.000180313 0.00169206 3.73527e-19 0.00169206)
(0.00176964 -3.70731e-06 -0.000191713 0.00176964 3.44495e-19 0.00176964)
(0.00184335 -3.56987e-06 -0.000202722 0.00184335 3.20621e-19 0.00184335)
(0.00191353 -3.43911e-06 -0.000213361 0.00191353 3.01269e-19 0.00191353)
(0.00198048 -3.31514e-06 -0.000223649 0.00198048 2.83153e-19 0.00198048)
(0.00204447 -3.19796e-06 -0.000233607 0.00204447 2.67298e-19 0.00204447)
(0.00210575 -3.08691e-06 -0.000243252 0.00210575 2.52507e-19 0.00210575)
(0.00216451 -2.98194e-06 -0.000252602 0.00216451 2.39911e-19 0.00216451)
(0.00222096 -2.88223e-06 -0.000261673 0.00222096 2.28462e-19 0.00222096)
(0.00227526 -2.78735e-06 -0.00027048 0.00227526 2.17958e-19 0.00227526)
(0.00232756 -2.6973e-06 -0.000279035 0.00232756 2.08793e-19 0.00232756)
(0.00237799 -2.61202e-06 -0.000287353 0.00237799 2.00163e-19 0.00237799)
(0.00242669 -2.53077e-06 -0.000295446 0.00242669 1.92709e-19 0.00242669)
(0.00247374 -2.4533e-06 -0.000303322 0.00247374 1.86711e-19 0.00247374)
(0.00251926 -2.37934e-06 -0.000310994 0.00251926 1.7868e-19 0.00251926)
(0.00256333 -2.30852e-06 -0.00031847 0.00256333 1.71341e-19 0.00256333)
(0.00260604 -2.24108e-06 -0.000325758 0.00260604 1.66878e-19 0.00260604)
(0.00264746 -2.17661e-06 -0.000332868 0.00264746 1.6229e-19 0.00264746)
(0.00268766 -2.11437e-06 -0.000339806 0.00268766 1.58289e-19 0.00268766)
(0.00272671 -2.0551e-06 -0.00034658 0.00272671 1.54865e-19 0.00272671)
(0.00276465 -1.99832e-06 -0.000353196 0.00276465 1.50087e-19 0.00276465)
(0.00280155 -1.94353e-06 -0.00035966 0.00280155 1.44236e-19 0.00280155)
(0.00283745 -1.89083e-06 -0.000365978 0.00283745 1.40281e-19 0.00283745)
(0.00287241 -1.83999e-06 -0.000372156 0.00287241 1.33439e-19 0.00287241)
(0.00290645 -1.79138e-06 -0.000378198 0.00290645 1.26672e-19 0.00290645)
(0.00293963 -1.74447e-06 -0.00038411 0.00293963 1.23089e-19 0.00293963)
(0.00297198 -1.6993e-06 -0.000389895 0.00297198 1.19172e-19 0.00297198)
(0.00300353 -1.65562e-06 -0.000395559 0.00300353 1.14532e-19 0.00300353)
(0.00303431 -1.61317e-06 -0.000401105 0.00303431 1.10137e-19 0.00303431)
(0.00306437 -1.57229e-06 -0.000406537 0.00306437 1.09467e-19 0.00306437)
(0.00309371 -1.53301e-06 -0.000411858 0.00309371 1.06624e-19 0.00309371)
(0.00312237 -1.49477e-06 -0.000417072 0.00312237 9.99967e-20 0.00312237)
(0.00315037 -1.45757e-06 -0.000422182 0.00315037 9.52685e-20 0.00315037)
(0.00317775 -1.42175e-06 -0.00042719 0.00317775 9.16424e-20 0.00317775)
(0.00320451 -1.38702e-06 -0.000432101 0.00320451 8.96116e-20 0.00320451)
(0.00323067 -1.35341e-06 -0.000436916 0.00323067 8.65106e-20 0.00323067)
(0.00325627 -1.32062e-06 -0.000441638 0.00325627 8.02631e-20 0.00325627)
(0.00328131 -1.28898e-06 -0.000446269 0.00328131 7.70827e-20 0.00328131)
(0.00330582 -1.25819e-06 -0.000450813 0.00330582 7.62268e-20 0.00330582)
(0.0033298 -1.22768e-06 -0.000455271 0.0033298 7.50522e-20 0.0033298)
(0.00335328 -1.19863e-06 -0.000459644 0.00335328 7.29336e-20 0.00335328)
(0.00337627 -1.17047e-06 -0.000463935 0.00337627 6.79825e-20 0.00337627)
(0.00339878 -1.14232e-06 -0.000468146 0.00339878 6.14141e-20 0.00339878)
(0.00342082 -1.11535e-06 -0.000472278 0.00342082 5.61902e-20 0.00342082)
(0.00344241 -1.08929e-06 -0.000476334 0.00344241 5.23079e-20 0.00344241)
(0.00346356 -1.06356e-06 -0.000480315 0.00346356 5.09782e-20 0.00346356)
(0.00348428 -1.03844e-06 -0.000484221 0.00348428 5.32486e-20 0.00348428)
(0.00350458 -1.01394e-06 -0.000488057 0.00350458 5.24268e-20 0.00350458)
(0.00352447 -9.90076e-07 -0.000491819 0.00352447 4.92646e-20 0.00352447)
(0.00354395 -9.6655e-07 -0.000495513 0.00354395 4.70653e-20 0.00354395)
(0.00356304 -9.43658e-07 -0.000499138 0.00356304 4.66507e-20 0.00356304)
(0.00358175 -9.214e-07 -0.000502697 0.00358175 4.53385e-20 0.00358175)
(0.00360007 -8.99491e-07 -0.000506189 0.00360007 4.36081e-20 0.00360007)
(0.00361803 -8.78219e-07 -0.000509615 0.00361803 4.15204e-20 0.00361803)
(0.00363563 -8.57302e-07 -0.000512977 0.00363563 3.58492e-20 0.00363563)
(0.00365287 -8.36458e-07 -0.000516277 0.00365287 3.03899e-20 0.00365287)
(0.00366976 -8.1625e-07 -0.000519512 0.00366976 2.6482e-20 0.00366976)
(0.0036863 -7.96685e-07 -0.000522687 0.0036863 2.78823e-20 0.0036863)
(0.00370251 -7.77198e-07 -0.000525801 0.00370251 2.686e-20 0.00370251)
(0.00371838 -7.57792e-07 -0.000528855 0.00371838 2.73185e-20 0.00371838)
(0.00373392 -7.39027e-07 -0.000531849 0.00373392 3.22529e-20 0.00373392)
(0.00374913 -7.209e-07 -0.000534784 0.00374913 2.91886e-20 0.00374913)
(0.00376403 -7.02582e-07 -0.00053766 0.00376403 2.20785e-20 0.00376403)
(0.00377861 -6.84625e-07 -0.000540479 0.00377861 1.66024e-20 0.00377861)
(0.00379288 -6.67307e-07 -0.00054324 0.00379288 1.64151e-20 0.00379288)
(0.00380683 -6.49805e-07 -0.000545945 0.00380683 2.24295e-20 0.00380683)
(0.00382049 -6.32664e-07 -0.000548593 0.00382049 2.90601e-20 0.00382049)
(0.00383383 -6.16158e-07 -0.000551185 0.00383383 3.10823e-20 0.00383383)
(0.00384688 -5.99475e-07 -0.000553721 0.00384688 2.94581e-20 0.00384688)
(0.00385963 -5.83152e-07 -0.000556202 0.00385963 2.55846e-20 0.00385963)
(0.00387209 -5.67192e-07 -0.000558627 0.00387209 2.20753e-20 0.00387209)
(0.00388425 -5.51059e-07 -0.000560998 0.00388425 2.22067e-20 0.00388425)
(0.00389611 -5.35289e-07 -0.000563314 0.00389611 1.73169e-20 0.00389611)
(0.00390769 -5.19617e-07 -0.000565574 0.00390769 9.7599e-21 0.00390769)
(0.00391898 -5.04305e-07 -0.000567781 0.00391898 7.85306e-21 0.00391898)
(0.00392999 -4.89355e-07 -0.000569932 0.00392999 8.36405e-21 0.00392999)
(0.0039407 -4.74241e-07 -0.000572032 0.0039407 1.02845e-20 0.0039407)
(0.00395113 -4.59228e-07 -0.000574075 0.00395113 1.14249e-20 0.00395113)
(0.00396128 -4.44316e-07 -0.000576065 0.00396128 1.04664e-20 0.00396128)
(0.00397115 -4.29763e-07 -0.000577998 0.00397115 1.64201e-20 0.00397115)
(0.00398073 -4.1557e-07 -0.00057988 0.00398073 1.90059e-20 0.00398073)
(0.00399002 -4.00968e-07 -0.000581707 0.00399002 1.10819e-20 0.00399002)
(0.00399903 -3.86723e-07 -0.000583478 0.00399903 3.35146e-21 0.00399903)
(0.00400776 -3.72839e-07 -0.000585195 0.00400776 5.71838e-21 0.00400776)
(0.00401621 -3.58553e-07 -0.000586858 0.00401621 9.41654e-21 0.00401621)
(0.00402437 -3.44376e-07 -0.000588465 0.00402437 9.21081e-21 0.00402437)
(0.00403225 -3.30558e-07 -0.000590018 0.00403225 1.27527e-20 0.00403225)
(0.00403983 -3.16849e-07 -0.000591514 0.00403983 9.9812e-21 0.00403983)
(0.00404714 -3.03247e-07 -0.000592955 0.00404714 7.7153e-21 0.00404714)
(0.00405415 -2.89511e-07 -0.00059434 0.00405415 1.44541e-20 0.00405415)
(0.00406088 -2.75885e-07 -0.000595668 0.00406088 2.30571e-20 0.00406088)
(0.00406731 -2.62374e-07 -0.000596939 0.00406731 2.79996e-20 0.00406731)
(0.00407345 -2.48733e-07 -0.000598153 0.00407345 3.59398e-20 0.00407345)
(0.0040793 -2.3545e-07 -0.000599309 0.0040793 4.08574e-20 0.0040793)
(0.00408485 -2.22043e-07 -0.000600407 0.00408485 4.22024e-20 0.00408485)
(0.0040901 -2.08514e-07 -0.000601448 0.0040901 4.46279e-20 0.0040901)
(0.00409505 -1.95106e-07 -0.000602427 0.00409505 4.8982e-20 0.00409505)
(0.0040997 -1.81818e-07 -0.000603347 0.0040997 4.98681e-20 0.0040997)
(0.00410404 -1.68418e-07 -0.000604206 0.00410404 3.86677e-20 0.00410404)
(0.00410807 -1.55142e-07 -0.000605005 0.00410807 3.38774e-20 0.00410807)
(0.00411179 -1.41759e-07 -0.000605742 0.00411179 3.48215e-20 0.00411179)
(0.00411519 -1.28271e-07 -0.000606416 0.00411519 3.57526e-20 0.00411519)
(0.00411827 -1.14915e-07 -0.000607027 0.00411827 3.42776e-20 0.00411827)
(0.00412103 -1.01689e-07 -0.000607573 0.00412103 2.2389e-20 0.00412103)
(0.00412345 -8.83687e-08 -0.000608055 0.00412345 1.40988e-20 0.00412345)
(0.00412555 -7.47279e-08 -0.000608472 0.00412555 1.14345e-20 0.00412555)
(0.00412731 -6.12271e-08 -0.000608821 0.00412731 5.16846e-21 0.00412731)
(0.00412873 -4.7867e-08 -0.000609102 0.00412873 -1.52432e-21 0.00412873)
(0.0041298 -3.42025e-08 -0.000609315 0.0041298 -8.02669e-22 0.0041298)
(0.00413052 -2.04604e-08 -0.000609457 0.00413052 -4.26289e-21 0.00413052)
(0.00413088 -6.86903e-09 -0.00060953 0.00413088 -4.55573e-21 0.00413088)
(0.000340403 -1.29425e-05 -4.10151e-06 0.000340403 2.6566e-18 0.000340403)
(0.000285075 -1.13788e-05 -1.13788e-05 0.000285075 -2.74975e-18 0.000285075)
(0.000295314 -1.1197e-05 -1.93396e-05 0.000295314 -1.41327e-18 0.000295314)
(0.000337903 -1.12935e-05 -2.82626e-05 0.000337903 -3.49933e-19 0.000337903)
(0.000396581 -1.14991e-05 -3.8351e-05 0.000396581 6.58776e-20 0.000396581)
(0.000462319 -1.16534e-05 -4.93999e-05 0.000462319 2.59428e-19 0.000462319)
(0.000529925 -1.16749e-05 -6.10151e-05 0.000529925 3.49924e-19 0.000529925)
(0.000596489 -1.15545e-05 -7.28324e-05 0.000596489 3.81585e-19 0.000596489)
(0.000660501 -1.13192e-05 -8.45877e-05 0.000660501 3.83014e-19 0.000660501)
(0.000721287 -1.10059e-05 -9.61144e-05 0.000721287 3.69854e-19 0.000721287)
(0.000778653 -1.06467e-05 -0.000107319 0.000778653 3.51249e-19 0.000778653)
(0.00083268 -1.02659e-05 -0.000118157 0.00083268 3.31469e-19 0.00083268)
(0.000883553 -9.88086e-06 -0.000128614 0.000883553 3.12128e-19 0.000883553)
(0.00093152 -9.50192e-06 -0.000138692 0.00093152 2.93601e-19 0.00093152)
(0.000976847 -9.13493e-06 -0.000148404 0.000976847 2.74799e-19 0.000976847)
(0.00101978 -8.7838e-06 -0.000157768 0.00101978 2.57855e-19 0.00101978)
(0.00106053 -8.4497e-06 -0.000166802 0.00106053 2.4683e-19 0.00106053)
(0.00109932 -8.13278e-06 -0.000175527 0.00109932 2.38602e-19 0.00109932)
(0.00113632 -7.83321e-06 -0.00018396 0.00113632 2.26107e-19 0.00113632)
(0.00117169 -7.54998e-06 -0.00019212 0.00117169 2.14198e-19 0.00117169)
(0.00120556 -7.28193e-06 -0.000200023 0.00120556 2.0553e-19 0.00120556)
(0.00123806 -7.02845e-06 -0.000207684 0.00123806 1.97064e-19 0.00123806)
(0.0012693 -6.7887e-06 -0.000215119 0.0012693 1.89401e-19 0.0012693)
(0.00129937 -6.56165e-06 -0.000222339 0.00129937 1.84177e-19 0.00129937)
(0.00132836 -6.34616e-06 -0.000229356 0.00132836 1.78309e-19 0.00132836)
(0.00135635 -6.14137e-06 -0.000236182 0.00135635 1.71947e-19 0.00135635)
(0.00138339 -5.94674e-06 -0.000242826 0.00138339 1.66571e-19 0.00138339)
(0.00140957 -5.76181e-06 -0.000249297 0.00140957 1.60563e-19 0.00140957)
(0.00143492 -5.58542e-06 -0.000255605 0.00143492 1.55641e-19 0.00143492)
(0.0014595 -5.41714e-06 -0.000261759 0.0014595 1.51761e-19 0.0014595)
(0.00148335 -5.25641e-06 -0.000267762 0.00148335 1.49023e-19 0.00148335)
(0.00150651 -5.10286e-06 -0.000273623 0.00150651 1.47108e-19 0.00150651)
(0.00152903 -4.95581e-06 -0.000279348 0.00152903 1.42304e-19 0.00152903)
(0.00155094 -4.81504e-06 -0.000284945 0.00155094 1.37486e-19 0.00155094)
(0.00157227 -4.68003e-06 -0.000290414 0.00157227 1.3667e-19 0.00157227)
(0.00159303 -4.55046e-06 -0.000295767 0.00159303 1.33235e-19 0.00159303)
(0.00161328 -4.42603e-06 -0.000301001 0.00161328 1.28578e-19 0.00161328)
(0.00163302 -4.30635e-06 -0.00030613 0.00163302 1.2542e-19 0.00163302)
(0.00165228 -4.19165e-06 -0.000311148 0.00165228 1.2269e-19 0.00165228)
(0.00167108 -4.0806e-06 -0.000316066 0.00167108 1.17966e-19 0.00167108)
(0.00168945 -3.97367e-06 -0.000320883 0.00168945 1.13252e-19 0.00168945)
(0.00170739 -3.87096e-06 -0.000325609 0.00170739 1.11307e-19 0.00170739)
(0.00172493 -3.77146e-06 -0.000330238 0.00172493 1.07339e-19 0.00172493)
(0.00174207 -3.67553e-06 -0.000334777 0.00174207 1.05303e-19 0.00174207)
(0.00175885 -3.58269e-06 -0.000339231 0.00175885 1.0435e-19 0.00175885)
(0.00177527 -3.49274e-06 -0.000343604 0.00177527 1.00057e-19 0.00177527)
(0.00179134 -3.4063e-06 -0.000347889 0.00179134 9.58369e-20 0.00179134)
(0.00180707 -3.32203e-06 -0.000352098 0.00180707 9.50556e-20 0.00180707)
(0.00182248 -3.24052e-06 -0.000356234 0.00182248 9.43686e-20 0.00182248)
(0.00183757 -3.16157e-06 -0.000360291 0.00183757 9.08522e-20 0.00183757)
(0.00185237 -3.08462e-06 -0.000364272 0.00185237 8.72831e-20 0.00185237)
(0.00186687 -3.01029e-06 -0.000368188 0.00186687 8.74206e-20 0.00186687)
(0.00188107 -2.93805e-06 -0.000372031 0.00188107 8.4395e-20 0.00188107)
(0.00189501 -2.86792e-06 -0.000375807 0.00189501 7.94188e-20 0.00189501)
(0.00190867 -2.79965e-06 -0.000379516 0.00190867 8.12739e-20 0.00190867)
(0.00192207 -2.73298e-06 -0.000383161 0.00192207 8.05409e-20 0.00192207)
(0.00193522 -2.66792e-06 -0.000386741 0.00193522 7.40393e-20 0.00193522)
(0.00194811 -2.60479e-06 -0.000390259 0.00194811 7.12396e-20 0.00194811)
(0.00196077 -2.54361e-06 -0.000393719 0.00196077 6.90485e-20 0.00196077)
(0.00197317 -2.48353e-06 -0.000397116 0.00197317 6.59888e-20 0.00197317)
(0.00198535 -2.42514e-06 -0.000400457 0.00198535 6.92671e-20 0.00198535)
(0.00199731 -2.36789e-06 -0.000403739 0.00199731 7.13214e-20 0.00199731)
(0.00200904 -2.31206e-06 -0.000406963 0.00200904 6.63858e-20 0.00200904)
(0.00202055 -2.25769e-06 -0.000410132 0.00202055 6.21257e-20 0.00202055)
(0.00203185 -2.20419e-06 -0.00041325 0.00203185 6.28661e-20 0.00203185)
(0.00204293 -2.15216e-06 -0.000416309 0.00204293 6.41978e-20 0.00204293)
(0.00205381 -2.10103e-06 -0.000419315 0.00205381 6.14485e-20 0.00205381)
(0.00206449 -2.05082e-06 -0.000422269 0.00206449 5.81908e-20 0.00206449)
(0.00207496 -2.00208e-06 -0.000425171 0.00207496 5.67083e-20 0.00207496)
(0.00208524 -1.95428e-06 -0.000428026 0.00208524 5.17686e-20 0.00208524)
(0.00209533 -1.90684e-06 -0.000430824 0.00209533 4.73118e-20 0.00209533)
(0.00210522 -1.86062e-06 -0.000433573 0.00210522 5.05016e-20 0.00210522)
(0.00211492 -1.81562e-06 -0.000436273 0.00211492 5.14615e-20 0.00211492)
(0.00212444 -1.77102e-06 -0.000438928 0.00212444 4.8647e-20 0.00212444)
(0.00213377 -1.72708e-06 -0.000441529 0.00213377 4.85803e-20 0.00213377)
(0.00214292 -1.68437e-06 -0.000444082 0.00214292 4.93424e-20 0.00214292)
(0.00215189 -1.64207e-06 -0.000446586 0.00215189 4.93869e-20 0.00215189)
(0.00216068 -1.60018e-06 -0.000449047 0.00216068 4.48698e-20 0.00216068)
(0.00216929 -1.55926e-06 -0.000451456 0.00216929 4.15088e-20 0.00216929)
(0.00217773 -1.51902e-06 -0.000453817 0.00217773 4.31981e-20 0.00217773)
(0.00218599 -1.4792e-06 -0.000456134 0.00218599 4.80588e-20 0.00218599)
(0.00219408 -1.44008e-06 -0.000458403 0.00219408 5.15725e-20 0.00219408)
(0.00220199 -1.40165e-06 -0.000460623 0.00220199 4.82597e-20 0.00220199)
(0.00220974 -1.36339e-06 -0.000462802 0.00220974 4.6298e-20 0.00220974)
(0.00221731 -1.32583e-06 -0.000464928 0.00221731 4.54995e-20 0.00221731)
(0.00222471 -1.2887e-06 -0.000467011 0.00222471 4.3792e-20 0.00222471)
(0.00223195 -1.25175e-06 -0.00046905 0.00223195 3.99475e-20 0.00223195)
(0.00223901 -1.21577e-06 -0.000471037 0.00223901 3.56758e-20 0.00223901)
(0.00224591 -1.17996e-06 -0.000472982 0.00224591 3.51359e-20 0.00224591)
(0.00225263 -1.14433e-06 -0.000474879 0.00225263 3.60129e-20 0.00225263)
(0.00225919 -1.10916e-06 -0.00047673 0.00225919 3.66592e-20 0.00225919)
(0.00226558 -1.07443e-06 -0.000478533 0.00226558 3.63883e-20 0.00226558)
(0.0022718 -1.0399e-06 -0.000480293 0.0022718 3.51198e-20 0.0022718)
(0.00227785 -1.00582e-06 -0.000482004 0.00227785 3.77061e-20 0.00227785)
(0.00228373 -9.72194e-07 -0.00048367 0.00228373 3.68457e-20 0.00228373)
(0.00228945 -9.3851e-07 -0.000485287 0.00228945 3.21515e-20 0.00228945)
(0.00229499 -9.05032e-07 -0.000486856 0.00229499 3.20547e-20 0.00229499)
(0.00230037 -8.72018e-07 -0.000488379 0.00230037 2.93524e-20 0.00230037)
(0.00230557 -8.39213e-07 -0.000489851 0.00230557 2.58002e-20 0.00230557)
(0.00231061 -8.06623e-07 -0.000491279 0.00231061 2.73125e-20 0.00231061)
(0.00231547 -7.7425e-07 -0.000492659 0.00231547 3.10676e-20 0.00231547)
(0.00232015 -7.41845e-07 -0.000493989 0.00232015 2.83272e-20 0.00232015)
(0.00232467 -7.09916e-07 -0.000495272 0.00232467 2.77368e-20 0.00232467)
(0.00232901 -6.77966e-07 -0.000496503 0.00232901 3.174e-20 0.00232901)
(0.00233317 -6.45999e-07 -0.000497684 0.00233317 3.29024e-20 0.00233317)
(0.00233715 -6.1427e-07 -0.000498815 0.00233715 3.60819e-20 0.00233715)
(0.00234096 -5.82779e-07 -0.000499898 0.00234096 4.13584e-20 0.00234096)
(0.00234459 -5.5129e-07 -0.00050093 0.00234459 4.0637e-20 0.00234459)
(0.00234803 -5.19802e-07 -0.000501907 0.00234803 4.17911e-20 0.00234803)
(0.00235129 -4.88329e-07 -0.000502836 0.00235129 4.64401e-20 0.00235129)
(0.00235436 -4.5711e-07 -0.000503711 0.00235436 4.51956e-20 0.00235436)
(0.00235725 -4.25916e-07 -0.000504532 0.00235725 4.35779e-20 0.00235725)
(0.00235994 -3.94509e-07 -0.000505299 0.00235994 3.76011e-20 0.00235994)
(0.00236245 -3.63376e-07 -0.000506015 0.00236245 3.22981e-20 0.00236245)
(0.00236476 -3.32047e-07 -0.000506672 0.00236476 3.19775e-20 0.00236476)
(0.00236687 -3.00765e-07 -0.000507274 0.00236687 3.01158e-20 0.00236687)
(0.00236879 -2.69539e-07 -0.00050782 0.00236879 2.61592e-20 0.00236879)
(0.00237051 -2.38141e-07 -0.000508309 0.00237051 2.30029e-20 0.00237051)
(0.00237201 -2.06812e-07 -0.000508738 0.00237201 1.71811e-20 0.00237201)
(0.00237332 -1.75331e-07 -0.000509111 0.00237332 1.11043e-20 0.00237332)
(0.00237442 -1.43704e-07 -0.000509428 0.00237442 6.45755e-21 0.00237442)
(0.0023753 -1.11945e-07 -0.000509677 0.0023753 1.83871e-21 0.0023753)
(0.00237597 -8.00601e-08 -0.000509869 0.00237597 1.20863e-22 0.00237597)
(0.00237642 -4.80634e-08 -0.000509994 0.00237642 -7.68034e-21 0.00237642)
(0.00237665 -1.59625e-08 -0.000510062 0.00237665 -5.23658e-21 0.00237665)
(0.00041908 -2.26198e-05 -4.20996e-06 0.00041908 1.89509e-18 0.00041908)
(0.000295314 -1.93396e-05 -1.1197e-05 0.000295314 -1.41562e-18 0.000295314)
(0.000270237 -2.05071e-05 -2.05071e-05 0.000270237 -1.47674e-18 0.000270237)
(0.000292468 -2.24516e-05 -3.26273e-05 0.000292468 -1.01157e-18 0.000292468)
(0.000338201 -2.42051e-05 -4.70118e-05 0.000338201 -6.32512e-19 0.000338201)
(0.000395093 -2.55223e-05 -6.31533e-05 0.000395093 -3.28898e-19 0.000395093)
(0.000456291 -2.63268e-05 -8.04333e-05 0.000456291 -1.05717e-19 0.000456291)
(0.000517985 -2.66479e-05 -9.82428e-05 0.000517985 4.02589e-20 0.000517985)
(0.000578147 -2.65775e-05 -0.000116114 0.000578147 1.27202e-19 0.000578147)
(0.000635801 -2.62219e-05 -0.000133743 0.000635801 1.75775e-19 0.000635801)
(0.000690573 -2.56761e-05 -0.00015095 0.000690573 2.01915e-19 0.000690573)
(0.000742407 -2.50125e-05 -0.000167645 0.000742407 2.11882e-19 0.000742407)
(0.000791427 -2.42838e-05 -0.000183794 0.000791427 2.11369e-19 0.000791427)
(0.000837813 -2.35258e-05 -0.000199389 0.000837813 2.0764e-19 0.000837813)
(0.000881793 -2.27628e-05 -0.000214444 0.000881793 1.98374e-19 0.000881793)
(0.000923567 -2.20093e-05 -0.000228979 0.000923567 1.86811e-19 0.000923567)
(0.000963347 -2.12738e-05 -0.000243024 0.000963347 1.78653e-19 0.000963347)
(0.0010013 -2.05627e-05 -0.000256599 0.0010013 1.70151e-19 0.0010013)
(0.0010376 -1.98785e-05 -0.00026974 0.0010376 1.56261e-19 0.0010376)
(0.00107239 -1.92222e-05 -0.000282464 0.00107239 1.44058e-19 0.00107239)
(0.00110579 -1.85942e-05 -0.000294798 0.00110579 1.34756e-19 0.00110579)
(0.00113791 -1.79942e-05 -0.000306765 0.00113791 1.24966e-19 0.00113791)
(0.00116886 -1.74205e-05 -0.000318387 0.00116886 1.20562e-19 0.00116886)
(0.00119873 -1.68719e-05 -0.000329681 0.00119873 1.13326e-19 0.00119873)
(0.00122758 -1.63483e-05 -0.000340666 0.00122758 9.93649e-20 0.00122758)
(0.0012555 -1.58485e-05 -0.000351362 0.0012555 8.85472e-20 0.0012555)
(0.00128255 -1.53688e-05 -0.000361778 0.00128255 7.72441e-20 0.00128255)
(0.00130877 -1.49114e-05 -0.000371933 0.00130877 6.8213e-20 0.00130877)
(0.00133423 -1.44758e-05 -0.000381841 0.00133423 6.46921e-20 0.00133423)
(0.00135897 -1.40558e-05 -0.000391503 0.00135897 5.91945e-20 0.00135897)
(0.00138303 -1.36514e-05 -0.000400946 0.00138303 5.42045e-20 0.00138303)
(0.00140645 -1.32643e-05 -0.000410165 0.00140645 4.81488e-20 0.00140645)
(0.00142927 -1.28961e-05 -0.000419181 0.00142927 3.32623e-20 0.00142927)
(0.0014515 -1.25382e-05 -0.000427999 0.0014515 2.15643e-20 0.0014515)
(0.00147319 -1.21966e-05 -0.000436629 0.00147319 2.14213e-20 0.00147319)
(0.00149437 -1.18675e-05 -0.000445073 0.00149437 1.36192e-20 0.00149437)
(0.00151504 -1.15517e-05 -0.000453345 0.00151504 9.57161e-23 0.00151504)
(0.00153525 -1.1245e-05 -0.000461449 0.00153525 5.44205e-22 0.00153525)
(0.001555 -1.09479e-05 -0.00046939 0.001555 3.57959e-21 0.001555)
(0.00157432 -1.06661e-05 -0.000477175 0.00157432 -5.95032e-21 0.00157432)
(0.00159323 -1.03952e-05 -0.000484811 0.00159323 -1.3306e-20 0.00159323)
(0.00161173 -1.01306e-05 -0.000492296 0.00161173 -1.71517e-20 0.00161173)
(0.00162986 -9.86753e-06 -0.000499646 0.00162986 -2.47892e-20 0.00162986)
(0.00164762 -9.62155e-06 -0.000506854 0.00164762 -2.77764e-20 0.00164762)
(0.00166503 -9.38797e-06 -0.000513935 0.00166503 -2.83266e-20 0.00166503)
(0.00168209 -9.15196e-06 -0.000520885 0.00168209 -2.78139e-20 0.00168209)
(0.00169882 -8.92379e-06 -0.000527713 0.00169882 -2.90931e-20 0.00169882)
(0.00171523 -8.71385e-06 -0.000534419 0.00171523 -2.32692e-20 0.00171523)
(0.00173133 -8.50215e-06 -0.000541008 0.00173133 -1.81105e-20 0.00173133)
(0.00174714 -8.28879e-06 -0.000547482 0.00174714 -2.5636e-20 0.00174714)
(0.00176265 -8.09421e-06 -0.000553845 0.00176265 -2.90298e-20 0.00176265)
(0.00177787 -7.90348e-06 -0.0005601 0.00177787 -2.51039e-20 0.00177787)
(0.00179283 -7.7115e-06 -0.000566242 0.00179283 -2.81407e-20 0.00179283)
(0.00180751 -7.52864e-06 -0.00057229 0.00180751 -3.63513e-20 0.00180751)
(0.00182194 -7.3499e-06 -0.000578227 0.00182194 -3.16621e-20 0.00182194)
(0.00183611 -7.1754e-06 -0.000584071 0.00183611 -3.34592e-20 0.00183611)
(0.00185003 -7.00522e-06 -0.000589819 0.00185003 -4.10565e-20 0.00185003)
(0.00186371 -6.8445e-06 -0.000595469 0.00186371 -3.87654e-20 0.00186371)
(0.00187714 -6.68323e-06 -0.000601026 0.00187714 -4.0991e-20 0.00187714)
(0.00189035 -6.52647e-06 -0.000606485 0.00189035 -4.30019e-20 0.00189035)
(0.00190333 -6.37436e-06 -0.000611859 0.00190333 -2.86671e-20 0.00190333)
(0.00191608 -6.22184e-06 -0.000617146 0.00191608 -2.06181e-20 0.00191608)
(0.00192861 -6.07408e-06 -0.000622338 0.00192861 -3.28404e-20 0.00192861)
(0.00194093 -5.93607e-06 -0.000627452 0.00194093 -4.3035e-20 0.00194093)
(0.00195303 -5.79789e-06 -0.000632473 0.00195303 -3.50674e-20 0.00195303)
(0.00196493 -5.65448e-06 -0.000637414 0.00196493 -2.79007e-20 0.00196493)
(0.00197661 -5.52097e-06 -0.000642272 0.00197661 -2.74751e-20 0.00197661)
(0.0019881 -5.39238e-06 -0.000647052 0.0019881 -2.15022e-20 0.0019881)
(0.00199939 -5.26871e-06 -0.000651748 0.00199939 -1.92712e-20 0.00199939)
(0.00201047 -5.14006e-06 -0.000656362 0.00201047 -2.69685e-20 0.00201047)
(0.00202136 -5.01135e-06 -0.000660894 0.00202136 -3.16811e-20 0.00202136)
(0.00203205 -4.89266e-06 -0.000665357 0.00203205 -1.89999e-20 0.00203205)
(0.00204255 -4.77898e-06 -0.000669736 0.00204255 -1.22387e-20 0.00204255)
(0.00205287 -4.66044e-06 -0.000674034 0.00205287 -2.31657e-20 0.00205287)
(0.00206299 -4.54197e-06 -0.000678259 0.00206299 -2.46714e-20 0.00206299)
(0.00207293 -4.42861e-06 -0.000682409 0.00207293 -1.33456e-20 0.00207293)
(0.00208268 -4.32028e-06 -0.000686476 0.00208268 -2.44036e-21 0.00208268)
(0.00209225 -4.21217e-06 -0.000690474 0.00209225 -5.26538e-21 0.00209225)
(0.00210163 -4.09931e-06 -0.000694392 0.00210163 -1.95658e-20 0.00210163)
(0.00211083 -3.99645e-06 -0.000698238 0.00211083 -1.70629e-20 0.00211083)
(0.00211985 -3.89382e-06 -0.000702011 0.00211985 -1.15761e-20 0.00211985)
(0.00212868 -3.78656e-06 -0.00070571 0.00212868 -7.01916e-21 0.00212868)
(0.00213733 -3.68924e-06 -0.000709332 0.00213733 -1.35892e-20 0.00213733)
(0.00214581 -3.58741e-06 -0.000712878 0.00214581 -2.09629e-20 0.00214581)
(0.00215411 -3.4858e-06 -0.000716353 0.00215411 -1.9734e-20 0.00215411)
(0.00216223 -3.39416e-06 -0.00071975 0.00216223 -1.61347e-20 0.00216223)
(0.00217016 -3.29322e-06 -0.000723074 0.00217016 -1.975e-20 0.00217016)
(0.00217792 -3.19738e-06 -0.000726325 0.00217792 -3.06216e-20 0.00217792)
(0.0021855 -3.10667e-06 -0.000729501 0.0021855 -2.80847e-20 0.0021855)
(0.00219289 -3.01155e-06 -0.000732602 0.00219289 -2.64694e-20 0.00219289)
(0.00220011 -2.91681e-06 -0.000735629 0.00220011 -2.01716e-20 0.00220011)
(0.00220715 -2.82716e-06 -0.000738585 0.00220715 -1.17098e-20 0.00220715)
(0.00221401 -2.73791e-06 -0.000741464 0.00221401 -7.98884e-21 0.00221401)
(0.00222069 -2.64904e-06 -0.000744265 0.00222069 -1.00819e-20 0.00222069)
(0.00222718 -2.5606e-06 -0.000746985 0.00222718 -8.76759e-21 0.00222718)
(0.00223349 -2.46792e-06 -0.000749634 0.00223349 -5.60284e-21 0.00223349)
(0.00223962 -2.38033e-06 -0.000752209 0.00223962 -1.20177e-20 0.00223962)
(0.00224557 -2.29322e-06 -0.000754703 0.00224557 -2.82783e-20 0.00224557)
(0.00225133 -2.20654e-06 -0.000757122 0.00225133 -3.04713e-20 0.00225133)
(0.00225689 -2.12494e-06 -0.000759466 0.00225689 -1.10277e-20 0.00225689)
(0.00226228 -2.03924e-06 -0.000761726 0.00226228 -7.31115e-21 0.00226228)
(0.00226747 -1.95402e-06 -0.00076391 0.00226747 -1.34294e-20 0.00226747)
(0.00227248 -1.86934e-06 -0.000766016 0.00227248 -9.05575e-21 0.00227248)
(0.00227729 -1.78066e-06 -0.000768036 0.00227729 -1.29046e-20 0.00227729)
(0.00228191 -1.69704e-06 -0.000769979 0.00228191 -1.74577e-20 0.00228191)
(0.00228633 -1.61846e-06 -0.000771834 0.00228633 -2.22874e-20 0.00228633)
(0.00229056 -1.53595e-06 -0.00077361 0.00229056 -2.51842e-20 0.00229056)
(0.00229459 -1.44958e-06 -0.000775306 0.00229459 -3.28312e-20 0.00229459)
(0.00229841 -1.36823e-06 -0.000776913 0.00229841 -3.29878e-20 0.00229841)
(0.00230204 -1.28749e-06 -0.000778438 0.00230204 -2.07777e-20 0.00230204)
(0.00230546 -1.20298e-06 -0.000779876 0.00230546 -2.85372e-20 0.00230546)
(0.00230867 -1.11913e-06 -0.000781229 0.00230867 -2.82398e-20 0.00230867)
(0.00231167 -1.04027e-06 -0.000782493 0.00231167 -1.98942e-20 0.00231167)
(0.00231446 -9.57767e-07 -0.000783667 0.00231446 -2.12096e-20 0.00231446)
(0.00231703 -8.71626e-07 -0.000784748 0.00231703 -2.11244e-20 0.00231703)
(0.00231939 -7.90514e-07 -0.000785738 0.00231939 -2.0232e-20 0.00231939)
(0.00232153 -7.10113e-07 -0.000786636 0.00232153 -1.74555e-20 0.00232153)
(0.00232343 -6.26218e-07 -0.000787441 0.00232343 -1.58975e-20 0.00232343)
(0.00232512 -5.43077e-07 -0.000788153 0.00232512 -2.22187e-20 0.00232512)
(0.00232657 -4.64924e-07 -0.000788765 0.00232657 -2.13042e-20 0.00232657)
(0.0023278 -3.79218e-07 -0.000789274 0.0023278 -1.40769e-20 0.0023278)
(0.00232878 -2.94321e-07 -0.000789691 0.00232878 -6.55202e-21 0.00232878)
(0.00232953 -2.10337e-07 -0.000790005 0.00232953 -5.43047e-21 0.00232953)
(0.00233003 -1.27186e-07 -0.000790218 0.00233003 -2.32059e-20 0.00233003)
(0.00233028 -4.49715e-08 -0.000790321 0.00233028 -1.31099e-20 0.00233028)
(0.000523345 -3.39808e-05 -4.4389e-06 0.000523345 1.59556e-18 0.000523345)
(0.000337903 -2.82626e-05 -1.12935e-05 0.000337903 -3.52522e-19 0.000337903)
(0.000292468 -3.26273e-05 -2.24516e-05 0.000292468 -1.00763e-18 0.000292468)
(0.000313701 -4.14041e-05 -4.14041e-05 0.000313701 -1.24849e-18 0.000313701)
(0.000367435 -5.01654e-05 -6.69152e-05 0.000367435 -1.22954e-18 0.000367435)
(0.000435894 -5.67428e-05 -9.60309e-05 0.000435894 -1.01064e-18 0.000435894)
(0.000509559 -6.09117e-05 -0.000126598 0.000509559 -7.22057e-19 0.000509559)
(0.000583445 -6.31022e-05 -0.000157317 0.000583445 -4.55327e-19 0.000583445)
(0.000655089 -6.38365e-05 -0.000187443 0.000655089 -2.44398e-19 0.000655089)
(0.0007234 -6.35631e-05 -0.00021658 0.0007234 -8.76411e-20 0.0007234)
(0.00078802 -6.26213e-05 -0.000244553 0.00078802 2.22107e-20 0.00078802)
(0.00084896 -6.12568e-05 -0.000271315 0.00084896 9.41186e-20 0.00084896)
(0.000906413 -5.96393e-05 -0.000296877 0.000906413 1.4352e-19 0.000906413)
(0.00096064 -5.78821e-05 -0.000321302 0.00096064 1.79041e-19 0.00096064)
(0.00101193 -5.60607e-05 -0.000344648 0.00101193 2.01815e-19 0.00101193)
(0.00106056 -5.4232e-05 -0.000366992 0.00106056 2.17417e-19 0.00106056)
(0.00110677 -5.24177e-05 -0.00038841 0.00110677 2.22125e-19 0.00110677)
(0.00115078 -5.06506e-05 -0.000408951 0.00115078 2.09537e-19 0.00115078)
(0.00119281 -4.89374e-05 -0.000428701 0.00119281 1.98511e-19 0.00119281)
(0.00123302 -4.72715e-05 -0.000447692 0.00123302 1.98309e-19 0.00123302)
(0.00127158 -4.56777e-05 -0.000465998 0.00127158 1.99027e-19 0.00127158)
(0.00130862 -4.41496e-05 -0.000483649 0.00130862 1.95436e-19 0.00130862)