/*--------------------------------*- C++ -*----------------------------------*\
| =========                 |                                                 |
| \\      /  F ield         | OpenFOAM: The Open Source CFD Toolbox           |
|  \\    /   O peration     | Version:  2306                                  |
|   \\  /    A nd           | Website:  www.openfoam.com                      |
|    \\/     M anipulation  |                                                 |
\*---------------------------------------------------------------------------*/
// * * * * * * * * * * * * * * * * * * * * * * * * * * * * * * * * * * * * * //
FoamFile
{
    version         2;
    format          ascii;
    arch            "LSB;label=32;scalar=64";
    class           volSymmTensorField;
    location        "0";
    object          S;
}

dimensions      [ 0 0 -1 0 0 0 0 ];

internalField   nonuniform List<symmTensor> 
15625
(
(0 0.174838 0.174838 -2.62234e-13 -1.5737e-13 -2.62297e-13)
(0 0.145808 0.460102 2.44001e-14 -9.44958e-14 -1.69911e-13)
(0 0.134884 0.724723 1.17512e-13 -6.07597e-14 -7.77263e-14)
(0 0.127266 0.974255 5.29496e-14 -4.57842e-14 -4.09243e-14)
(0 0.120424 1.2102 2.2884e-14 -3.41823e-14 -2.30119e-14)
(0 0.113519 1.4325 1.2592e-14 -2.57948e-14 -1.31039e-14)
(1.66595e-17 0.106446 1.64087 7.5423e-15 -2.01174e-14 -7.74742e-15)
(0 0.0993804 1.83538 4.67225e-15 -1.62043e-14 -4.86549e-15)
(0 0.092549 2.0165 3.07739e-15 -1.3409e-14 -3.25494e-15)
(0 0.0861186 2.18507 2.17779e-15 -1.13398e-14 -2.32263e-15)
(1.62911e-17 0.0801749 2.34209 1.63258e-15 -9.73905e-15 -1.73066e-15)
(0 0.074757 2.48861 1.2683e-15 -8.48403e-15 -1.34673e-15)
(0 0.0698482 2.62566 1.01636e-15 -7.4841e-15 -1.06765e-15)
(0 0.0654113 2.75421 8.29016e-16 -6.64379e-15 -8.81157e-16)
(3.18618e-17 0.0614138 2.8751 6.86397e-16 -5.95591e-15 -7.14202e-16)
(-3.16842e-17 0.057803 2.98912 5.68253e-16 -5.37123e-15 -5.90026e-16)
(3.15076e-17 0.0545359 3.09693 4.60234e-16 -4.89803e-15 -4.53532e-16)
(0 0.0515659 3.19912 3.89149e-16 -4.5172e-15 -4.20664e-16)
(3.11573e-17 0.0488597 3.29621 3.36418e-16 -4.1732e-15 -3.9548e-16)
(0 0.0463891 3.38866 2.83447e-16 -3.87738e-15 -3.33161e-16)
(0 0.0441219 3.47685 2.45697e-16 -3.60913e-15 -2.76885e-16)
(0 0.042039 3.56114 2.1558e-16 -3.38223e-15 -2.27417e-16)
(0 0.0401136 3.64184 2.00011e-16 -3.17962e-15 -1.89208e-16)
(-9.08956e-17 0.0383273 3.71922 1.90954e-16 -2.99703e-15 -1.56755e-16)
(0 0.0366701 3.79352 1.65317e-16 -2.83857e-15 -1.62449e-16)
(0 0.0351322 3.86495 1.38541e-16 -2.69222e-15 -1.51446e-16)
(0 0.0336961 3.93373 1.20257e-16 -2.56583e-15 -1.40325e-16)
(0 0.0323525 4.00001 1.14741e-16 -2.46221e-15 -1.1934e-16)
(0 0.0310923 4.06396 1.12571e-16 -2.33492e-15 -8.41624e-17)
(5.85984e-17 0.0299064 4.12571 9.53885e-17 -2.21969e-15 -5.58107e-17)
(-2.91359e-17 0.0287939 4.18541 8.29614e-17 -2.14409e-15 -4.72814e-17)
(0 0.0277459 4.24317 7.91858e-17 -2.06875e-15 -4.8841e-17)
(0 0.0267502 4.2991 7.26377e-17 -2.00261e-15 -7.17113e-17)
(0 0.0258135 4.35328 7.6353e-17 -1.94522e-15 -5.03288e-17)
(-5.69832e-17 0.0249274 4.40584 8.77218e-17 -1.87221e-15 -5.91309e-17)
(0 0.0240838 4.45683 8.12339e-17 -1.78734e-15 -7.98824e-17)
(0 0.023282 4.50634 7.48793e-17 -1.7273e-15 -6.98192e-17)
(0 0.0225178 4.55444 7.77313e-17 -1.63302e-15 -8.3305e-17)
(0 0.0217941 4.60119 5.77014e-17 -1.5411e-15 -6.72816e-17)
(5.54126e-17 0.0211032 4.64667 3.26489e-17 -1.48903e-15 -8.5316e-17)
(0 0.0204446 4.69092 3.55521e-17 -1.43379e-15 -5.96178e-17)
(0 0.0198142 4.734 4.24903e-17 -1.37071e-15 -4.88602e-17)
(0 0.0192081 4.77597 2.32383e-17 -1.31141e-15 -3.46725e-17)
(0 0.0186293 4.81685 1.44428e-17 -1.29702e-15 -1.94173e-17)
(0 0.0180776 4.8567 3.68968e-17 -1.25733e-15 -3.10935e-17)
(0 0.0175454 4.89556 4.07958e-17 -1.17375e-15 -3.43889e-17)
(0 0.0170326 4.93346 1.97882e-17 -1.11327e-15 -1.43405e-17)
(0 0.0165423 4.97045 3.22482e-18 -1.06628e-15 -7.71474e-19)
(5.26938e-17 0.0160707 5.00654 8.94551e-18 -1.03829e-15 -7.40432e-18)
(0 0.0156176 5.04179 3.50322e-17 -9.9829e-16 -4.93636e-17)
(-5.2108e-17 0.0151793 5.07621 3.49936e-17 -9.22547e-16 -5.34937e-17)
(0 0.0147589 5.10983 9.31546e-18 -8.82605e-16 -2.79809e-17)
(5.15287e-17 0.0143529 5.14269 1.12014e-18 -8.69563e-16 -7.42461e-17)
(0 0.0139543 5.1748 1.03233e-17 -8.53075e-16 -2.54156e-17)
(5.09558e-17 0.0135764 5.20618 2.44566e-17 -8.26088e-16 -2.02635e-17)
(-1.01344e-16 0.0132122 5.23688 3.89262e-17 -7.67384e-16 -5.10009e-17)
(0 0.0128516 5.26688 4.11537e-17 -6.9094e-16 -6.38217e-17)
(0 0.0125078 5.29622 2.56891e-17 -6.30129e-16 -4.07093e-17)
(0 0.0121772 5.32492 3.80447e-18 -5.84749e-16 -4.05955e-17)
(0 0.0118531 5.35301 -1.75759e-17 -5.68141e-16 1.17709e-17)
(0 0.0115387 5.38048 -1.91585e-17 -5.91678e-16 1.68432e-17)
(0 0.0112339 5.40736 7.4119e-18 -5.80856e-16 -3.1921e-17)
(-9.74547e-17 0.0109384 5.43366 2.02749e-17 -5.44279e-16 -5.72703e-17)
(0 0.0106491 5.4594 3.52088e-19 -5.18551e-16 -2.35743e-17)
(0 0.010369 5.48459 -1.82876e-17 -5.12604e-16 6.31984e-18)
(9.5834e-17 0.010098 5.50925 -2.63361e-17 -4.96882e-16 -1.81543e-17)
(4.76499e-17 0.00983274 5.53337 -1.7596e-17 -4.767e-16 -1.14687e-17)
(0 0.00957635 5.55699 1.42207e-17 -4.52751e-16 -2.93317e-17)
(0 0.00932561 5.5801 2.91451e-17 -3.89963e-16 -1.55523e-17)
(0 0.00907737 5.60272 1.72483e-17 -3.29796e-16 -4.57329e-17)
(0 0.00883768 5.62485 -5.14924e-18 -2.86725e-16 3.0096e-17)
(0 0.00860647 5.64651 -7.92367e-18 -3.01208e-16 5.4281e-17)
(0 0.00837756 5.66771 -6.98726e-18 -2.89529e-16 -1.91852e-17)
(4.58214e-17 0.00815093 5.68845 -3.07673e-17 -2.93842e-16 -4.79884e-18)
(0 0.00793252 5.70873 -1.90309e-17 -3.46194e-16 1.20379e-17)
(-9.0624e-17 0.00772224 5.72857 2.41938e-17 -3.12667e-16 4.86499e-19)
(-4.50594e-17 0.00751111 5.74798 3.83233e-17 -2.36035e-16 2.70217e-17)
(0 0.00730501 5.76695 1.13183e-17 -1.77149e-16 -1.59081e-17)
(4.45584e-17 0.00710682 5.78551 -3.80867e-17 -1.74821e-16 1.58447e-17)
(4.43101e-17 0.00690772 5.80364 -5.54843e-17 -2.38436e-16 3.3054e-17)
(0 0.00671347 5.82136 -3.007e-17 -3.08369e-16 3.92416e-17)
(0 0.00652693 5.83867 2.9577e-19 -3.29253e-16 1.32706e-17)
(0 0.00633942 5.85558 2.7363e-17 -3.11518e-16 -2.88177e-17)
(0 0.00615661 5.87209 2.89186e-17 -2.70109e-16 -2.67518e-17)
(8.61775e-17 0.00597848 5.88821 5.70865e-18 -2.32685e-16 -5.4962e-17)
(8.56972e-17 0.00579934 5.90393 1.59602e-17 -2.33704e-16 -4.57006e-17)
(0 0.00562478 5.91926 4.63025e-17 -1.81965e-16 -1.03551e-16)
(0 0.00545201 5.93421 3.31065e-17 -1.02404e-16 -8.43889e-17)
(0 0.00528372 5.94877 -2.4263e-18 -8.22784e-17 -3.09015e-17)
(0 0.00511991 5.96296 -2.7407e-17 -8.75094e-17 4.11008e-18)
(0 0.00495502 5.97677 -3.83374e-17 -1.07455e-16 2.12454e-17)
(0 0.00479182 5.9902 -2.70507e-17 -1.19214e-16 7.91824e-18)
(0 0.00463028 6.00325 -3.37669e-17 -1.09072e-16 2.49466e-18)
(0 0.00447306 6.01593 -4.56682e-17 -1.70904e-16 1.90504e-17)
(8.14925e-17 0.00432013 6.02824 6.06188e-18 -1.97579e-16 -4.08937e-18)
(-1.62076e-16 0.00416347 6.04018 5.66432e-17 -1.15069e-16 -2.10444e-17)
(0 0.00401103 6.05175 1.69783e-17 -3.47609e-17 2.37025e-18)
(8.01373e-17 0.00386281 6.06294 -3.53671e-17 -5.92456e-17 -1.69177e-17)
(0 0.0037109 6.07377 -3.34251e-17 -9.7458e-17 1.61697e-17)
(0 0.00356056 6.08423 -2.24177e-17 -9.52319e-17 5.8094e-17)
(0 0.00341435 6.09432 -1.0418e-17 -1.31723e-16 7.07644e-17)
(0 0.00326967 6.10403 2.63645e-18 -1.02999e-16 -2.6812e-17)
(0 0.00312649 6.11338 -1.17569e-17 -7.95449e-17 1.38889e-17)
(0 0.00298228 6.12235 -3.67975e-17 -1.48893e-16 5.99852e-18)
(0 0.00283956 6.13095 -3.08198e-17 -2.37316e-16 -1.98314e-17)
(0 0.00269837 6.13918 -2.84091e-17 -2.8796e-16 -5.91645e-18)
(0 0.00255614 6.14702 -3.60955e-17 -3.69341e-16 7.66054e-19)
(0 0.00241791 6.15449 -1.80155e-17 -4.19577e-16 -3.59854e-17)
(7.53581e-17 0.00227867 6.16157 -8.78109e-18 -4.33094e-16 2.20255e-17)
(0 0.00213846 6.16828 -3.03791e-17 -4.57691e-16 -1.07084e-17)
(7.45203e-17 0.00199974 6.17459 -3.78094e-17 -5.02041e-16 -4.48721e-17)
(0 0.0018625 6.18052 8.33453e-18 -5.10835e-16 -4.27087e-17)
(0 0.00172432 6.18605 1.6052e-17 -3.95892e-16 -3.72699e-17)
(-7.32811e-17 0.00158761 6.19118 -2.58845e-17 -3.46677e-16 1.94431e-17)
(0 0.00145001 6.19592 -4.3053e-17 -3.56177e-16 -3.76529e-17)
(7.24664e-17 0.0013115 6.20025 -3.30445e-17 -3.65549e-16 -4.60242e-17)
(0 0.0011745 6.20418 2.8167e-17 -3.50338e-16 -5.94789e-17)
(0 0.00103897 6.20769 5.87639e-17 -2.28753e-16 -1.41068e-17)
(7.12613e-17 0.000902613 6.21078 1.70084e-17 -1.44007e-16 -5.63834e-17)
(0 0.000763088 6.21345 -5.18841e-18 -1.16764e-16 -3.02978e-17)
(0 0.000625091 6.21569 -5.26616e-18 -5.27668e-17 -3.33507e-17)
(-7.00762e-17 0.000488609 6.2175 -2.40773e-17 1.55597e-17 -1.78926e-17)
(0 0.000349081 6.21886 -1.91592e-17 8.19229e-18 -1.59366e-17)
(0 0.000208807 6.21978 -1.37506e-19 4.35046e-17 -2.00919e-17)
(0 7.00983e-05 6.22024 -3.21868e-17 4.64911e-17 7.41854e-17)
(0 0.460102 0.145808 -1.69941e-13 -9.44416e-14 2.43305e-14)
(0 0.401784 0.401784 -3.57871e-14 9.70935e-14 -3.55898e-14)
(0 0.374263 0.646428 5.13794e-14 4.72389e-14 -4.84853e-14)
(0 0.3508 0.877895 4.01527e-14 1.08697e-14 -3.80827e-14)
(0 0.328307 1.09495 2.64698e-14 -1.88085e-15 -2.65051e-14)
(0 0.305856 1.29656 1.84755e-14 -6.80899e-15 -1.81874e-14)
(0 0.283675 1.48254 1.29855e-14 -8.50242e-15 -1.25925e-14)
(0 0.262326 1.65354 9.16901e-15 -8.66325e-15 -8.9091e-15)
(6.55298e-17 0.242304 1.81072 6.63824e-15 -8.19895e-15 -6.48386e-15)
(0 0.223913 1.95544 4.98385e-15 -7.52464e-15 -4.86026e-15)
(-6.48012e-17 0.207246 2.08906 3.84662e-15 -6.83733e-15 -3.7484e-15)
(6.444e-17 0.192259 2.21285 3.01945e-15 -6.20775e-15 -2.99e-15)
(0 0.178846 2.32794 2.44983e-15 -5.64958e-15 -2.42356e-15)
(0 0.166847 2.43533 2.03432e-15 -5.15542e-15 -1.99597e-15)
(0 0.156094 2.53587 1.69325e-15 -4.69565e-15 -1.6921e-15)
(0 0.146443 2.6303 1.38467e-15 -4.29894e-15 -1.39826e-15)
(0 0.137749 2.71925 1.10758e-15 -4.02387e-15 -1.17857e-15)
(0 0.129885 2.80326 9.31357e-16 -3.81061e-15 -1.01069e-15)
(-1.23934e-16 0.122753 2.88281 8.22023e-16 -3.54329e-15 -8.99994e-16)
(0 0.116257 2.95832 7.24867e-16 -3.29828e-15 -7.53344e-16)
(0 0.110313 3.03013 6.35019e-16 -3.11356e-15 -6.59879e-16)
(1.21873e-16 0.104861 3.09855 5.61284e-16 -2.9401e-15 -5.63683e-16)
(0 0.0998455 3.16388 4.93748e-16 -2.78563e-15 -4.8936e-16)
(1.20519e-16 0.0952157 3.22634 4.17498e-16 -2.67258e-15 -4.71318e-16)
(0 0.0909262 3.28615 3.63932e-16 -2.55477e-15 -4.33806e-16)
(0 0.0869405 3.34351 3.2534e-16 -2.43418e-15 -3.79679e-16)
(0 0.0832304 3.39859 2.76608e-16 -2.33132e-15 -3.5216e-16)
(0 0.0797723 3.45152 2.77886e-16 -2.22299e-15 -2.81974e-16)
(-1.17197e-16 0.0765353 3.50248 2.99831e-16 -2.1327e-15 -2.49754e-16)
(0 0.0735006 3.55158 2.35927e-16 -2.05911e-15 -2.40648e-16)
(0 0.07065 3.59892 1.75544e-16 -2.00298e-15 -2.27428e-16)
(0 0.0679692 3.64461 1.65866e-16 -1.95945e-15 -2.52172e-16)
(0 0.0654406 3.68874 1.47912e-16 -1.8791e-15 -2.60106e-16)
(0 0.0630543 3.73143 1.45887e-16 -1.80042e-15 -2.07838e-16)
(0 0.0607971 3.7727 1.61434e-16 -1.77544e-15 -1.71754e-16)
(0 0.0586594 3.81269 1.53956e-16 -1.71752e-15 -1.99972e-16)
(0 0.0566323 3.8514 1.7696e-16 -1.64519e-15 -1.69852e-16)
(-1.11447e-16 0.0547065 3.88898 2.14978e-16 -1.59329e-15 -1.23666e-16)
(0 0.0528808 3.92537 1.78875e-16 -1.54783e-15 -1.52322e-16)
(1.10208e-16 0.0511353 3.96072 1.41955e-16 -1.47827e-15 -1.82251e-16)
(0 0.0494726 3.99503 1.45824e-16 -1.41e-15 -1.63933e-16)
(0 0.0478914 4.02841 1.51367e-16 -1.37708e-15 -1.75038e-16)
(0 0.0463762 4.06081 1.07738e-16 -1.3199e-15 -1.50984e-16)
(0 0.0449296 4.09231 7.93261e-17 -1.28722e-15 -1.08964e-16)
(0 0.0435435 4.12297 1.46561e-16 -1.26825e-15 -8.75599e-17)
(0 0.0422136 4.15283 1.86537e-16 -1.2093e-15 -7.40523e-17)
(0 0.040946 4.18185 1.48182e-16 -1.15202e-15 -6.09652e-17)
(0 0.0397224 4.21014 1.12035e-16 -1.13661e-15 -2.17954e-17)
(0 0.0385491 4.23774 1.13834e-16 -1.1226e-15 -9.13825e-17)
(0 0.037422 4.2646 1.32963e-16 -1.07538e-15 -1.0363e-16)
(0 0.0363335 4.29075 1.19249e-16 -1.0281e-15 -8.6166e-17)
(1.03057e-16 0.0352899 4.31631 7.12382e-17 -1.02484e-15 -9.73828e-17)
(0 0.0342838 4.3412 4.99519e-17 -9.84797e-16 -1.34657e-16)
(0 0.0333147 4.3655 6.38296e-17 -9.22554e-16 -1.31756e-16)
(0 0.0323786 4.38919 1.00515e-16 -9.39953e-16 -9.30432e-17)
(1.00779e-16 0.0314719 4.41232 1.52323e-16 -9.27476e-16 -1.48676e-16)
(0 0.030594 4.43489 1.55284e-16 -8.49033e-16 -1.15228e-16)
(0 0.0297479 4.45692 1.12434e-16 -8.13586e-16 -8.56266e-17)
(1.98205e-16 0.0289331 4.47847 8.03179e-17 -7.85411e-16 -8.13968e-17)
(0 0.0281394 4.49948 3.20007e-17 -7.47679e-16 -4.72345e-17)
(9.80009e-17 0.027373 4.52003 1.16075e-17 -7.8183e-16 3.58009e-19)
(9.74547e-17 0.0266272 4.54008 5.09636e-17 -8.02016e-16 -8.70044e-17)
(1.93823e-16 0.0259047 4.55967 6.7482e-17 -7.43795e-16 -1.26465e-16)
(0 0.0252053 4.57879 5.40128e-17 -6.93584e-16 -8.29897e-17)
(0 0.0245224 4.59754 4.59354e-17 -6.99406e-16 -1.74822e-17)
(0 0.023862 4.61581 6.13622e-17 -7.1179e-16 -3.93623e-17)
(0 0.0232175 4.63365 8.22443e-17 -6.79039e-16 -4.14473e-17)
(0 0.0225888 4.6511 1.12447e-16 -6.40946e-16 -6.1459e-17)
(0 0.0219818 4.66816 1.30273e-16 -6.22628e-16 -8.96399e-17)
(0 0.0213901 4.68486 1.11317e-16 -5.66622e-16 -1.05856e-16)
(1.85346e-16 0.0208073 4.70113 6.33422e-17 -5.16265e-16 -4.39808e-17)
(0 0.0202425 4.71703 2.49622e-17 -5.4943e-16 5.69126e-18)
(0 0.0196954 4.73258 3.81155e-18 -5.58242e-16 -2.0888e-17)
(0 0.0191568 4.74782 -3.91159e-17 -5.26207e-16 -3.37652e-17)
(0 0.0186295 4.76265 -3.08891e-18 -5.24023e-16 3.52801e-17)
(0 0.0181194 4.77716 9.76748e-17 -5.30794e-16 5.40378e-17)
(0 0.0176173 4.79129 1.3681e-16 -5.29858e-16 -7.55343e-18)
(0 0.0171232 4.80516 7.46808e-17 -4.80143e-16 -8.35541e-17)
(0 0.0166429 4.81865 -3.69598e-17 -4.43048e-16 -6.74757e-17)
(0 0.0161731 4.83182 -1.07487e-16 -4.59933e-16 4.93057e-19)
(-1.7527e-16 0.0157109 4.84471 -8.63112e-17 -5.10443e-16 -1.4467e-17)
(0 0.0152592 4.85727 -2.66802e-18 -5.46464e-16 -1.83321e-17)
(0 0.0148176 4.86949 5.11566e-17 -5.10179e-16 -1.08664e-16)
(0 0.0143806 4.88148 6.23721e-17 -4.88335e-16 -3.66511e-17)
(0 0.0139535 4.89308 4.43752e-17 -4.78854e-16 -4.99727e-17)
(-1.70439e-16 0.0135337 4.90445 5.72342e-17 -4.59894e-16 -2.52869e-17)
(-1.69489e-16 0.013118 4.91552 9.47851e-17 -4.18639e-16 -8.75668e-17)
(0 0.0127149 4.92626 6.51929e-17 -3.73109e-16 -3.78105e-17)
(1.67605e-16 0.0123159 4.93676 2.04652e-17 -3.66732e-16 -2.88414e-17)
(0 0.0119209 4.94696 8.45344e-18 -3.75158e-16 -8.74406e-18)
(0 0.0115326 4.95687 1.24858e-17 -3.8117e-16 1.66387e-17)
(0 0.0111511 4.96649 2.42524e-17 -3.77658e-16 2.6587e-18)
(0 0.0107734 4.97586 -3.33559e-17 -3.63843e-16 -2.65011e-17)
(1.62985e-16 0.0104023 4.98494 -5.06517e-17 -3.89961e-16 -4.99724e-17)
(0 0.0100376 4.99377 6.69897e-17 -3.80423e-16 -6.35701e-17)
(-1.61173e-16 0.00967409 5.0023 1.21554e-16 -3.31415e-16 -8.67275e-17)
(1.60275e-16 0.00931427 5.01055 4.3908e-17 -3.29895e-16 -1.17981e-16)
(0 0.00896078 5.01853 -2.94253e-17 -3.01622e-16 -9.93842e-17)
(0 0.00861095 5.02623 -1.30027e-17 -2.64729e-16 4.23155e-17)
(-1.57609e-16 0.00826474 5.03368 -2.94501e-18 -2.79847e-16 7.28523e-17)
(0 0.00792212 5.04089 1.63607e-17 -3.17884e-16 1.35584e-18)
(0 0.0075805 5.0478 3.49781e-17 -2.8946e-16 3.76046e-17)
(0 0.00724499 5.05446 -4.65772e-17 -2.83066e-16 3.81964e-17)
(3.08248e-16 0.00691047 5.06083 -1.26129e-16 -3.23524e-16 -3.41754e-18)
(1.53265e-16 0.0065769 5.0669 -1.28446e-16 -3.34979e-16 2.54638e-17)
(1.52411e-16 0.00624686 5.07273 -1.24755e-16 -3.66937e-16 -1.69591e-17)
(1.51561e-16 0.00592028 5.07832 -1.10218e-16 -4.20147e-16 1.62503e-17)
(0 0.00559468 5.08361 -5.38175e-17 -4.12399e-16 -3.55889e-17)
(0 0.00527004 5.08861 -2.64188e-17 -4.23702e-16 2.34529e-17)
(0 0.00494642 5.09337 -4.16886e-17 -4.70405e-16 -1.93712e-17)
(0 0.00462622 5.09785 -2.36333e-17 -4.57406e-16 -6.12755e-17)
(-1.47384e-16 0.00430704 5.10203 9.96663e-17 -4.40678e-16 -4.84269e-17)
(0 0.00398642 5.10593 1.61433e-16 -3.7995e-16 -7.52293e-17)
(1.45745e-16 0.00366926 5.10959 8.12502e-17 -3.26137e-16 -1.05155e-16)
(1.44933e-16 0.00335074 5.11292 1.75401e-17 -3.22691e-16 -8.18098e-17)
(1.44125e-16 0.00303328 5.11597 2.30957e-17 -3.03725e-16 -7.81508e-17)
(0 0.00271691 5.11874 1.11432e-16 -2.63681e-16 -9.03747e-17)
(-1.42523e-16 0.00239928 5.12123 1.63859e-16 -2.31755e-16 -1.27129e-16)
(0 0.00208276 5.12339 1.11367e-16 -1.73027e-16 -1.26294e-16)
(0 0.00176508 5.12528 1.05639e-16 -1.11789e-16 -6.11837e-17)
(0 0.00144624 5.12689 1.36304e-16 -6.4989e-17 -5.00673e-17)
(0 0.00112634 5.12815 8.18344e-17 -1.85003e-17 -2.48697e-17)
(0 0.00080538 5.12912 5.10458e-17 -1.21585e-18 -5.79357e-17)
(-1.37822e-16 0.000483443 5.12975 3.81374e-17 7.72522e-17 -1.67691e-17)
(0 0.000160548 5.1301 -6.17365e-17 5.26684e-17 1.63473e-16)
(0 0.724723 0.134884 -7.76752e-14 -6.07174e-14 1.1742e-13)
(0 0.646428 0.374263 -4.85705e-14 4.73171e-14 5.14864e-14)
(0 0.608363 0.608363 1.82246e-15 4.38089e-14 1.79667e-15)
(6.70115e-17 0.570829 0.829545 1.40981e-14 2.5719e-14 -1.32556e-14)
(0 0.532157 1.03357 1.61849e-14 1.3906e-14 -1.58914e-14)
(0 0.492568 1.21883 1.47699e-14 6.34756e-15 -1.44416e-14)
(-6.58971e-17 0.453606 1.38585 1.22134e-14 1.82147e-15 -1.19462e-14)
(0 0.416748 1.53643 9.69048e-15 -6.29611e-16 -9.56047e-15)
(0 0.38287 1.67272 7.62916e-15 -1.83244e-15 -7.5919e-15)
(0 0.352285 1.7968 6.05288e-15 -2.3615e-15 -6.04973e-15)
(0 0.32496 1.91044 4.85207e-15 -2.55546e-15 -4.89758e-15)
(0 0.300655 2.01513 3.93452e-15 -2.54686e-15 -3.99736e-15)
(1.27447e-16 0.279058 2.11207 3.25263e-15 -2.42895e-15 -3.30247e-15)
(0 0.259844 2.20226 2.75077e-15 -2.29339e-15 -2.75525e-15)
(1.2603e-16 0.242708 2.28651 2.3387e-15 -2.11516e-15 -2.3385e-15)
(0 0.227369 2.36549 1.91172e-15 -1.92986e-15 -2.02082e-15)
(0 0.213575 2.4398 1.52664e-15 -1.79356e-15 -1.79666e-15)
(0 0.20113 2.50987 1.33695e-15 -1.6643e-15 -1.54708e-15)
(0 0.189853 2.57619 1.21928e-15 -1.49239e-15 -1.28071e-15)
(0 0.179591 2.63903 1.05405e-15 -1.34592e-15 -1.09018e-15)
(-1.21873e-16 0.170221 2.69873 9.21682e-16 -1.23363e-15 -9.47049e-16)
(0 0.161636 2.75556 8.18633e-16 -1.12252e-15 -8.32416e-16)
(0 0.153735 2.80975 7.12502e-16 -1.06395e-15 -7.44981e-16)
(0 0.146441 2.86149 6.42649e-16 -9.83619e-16 -7.10499e-16)
(0 0.139696 2.91099 5.93102e-16 -8.49072e-16 -6.30013e-16)
(-1.18514e-16 0.133443 2.95842 5.20336e-16 -7.45555e-16 -5.65904e-16)
(-1.17854e-16 0.127609 3.00388 4.63815e-16 -6.41366e-16 -4.93427e-16)
(1.17197e-16 0.122181 3.04755 4.40126e-16 -5.58925e-16 -4.62978e-16)
(0 0.117127 3.08955 4.1174e-16 -5.23436e-16 -4.73166e-16)
(0 0.11237 3.12989 3.52508e-16 -4.73233e-16 -4.42999e-16)
(0 0.107892 3.1688 2.93822e-16 -4.28395e-16 -4.08617e-16)
(0 0.103687 3.20625 2.87985e-16 -3.76378e-16 -3.97728e-16)
(2.27933e-16 0.0997525 3.24241 3.00288e-16 -2.57287e-16 -3.68201e-16)
(0 0.0960087 3.27731 2.64016e-16 -1.65125e-16 -3.1743e-16)
(0 0.0924897 3.31106 2.5402e-16 -1.62443e-16 -2.57075e-16)
(0 0.0891557 3.34365 2.82239e-16 -1.02315e-16 -2.44124e-16)
(0 0.0860031 3.37518 2.70969e-16 -7.12613e-19 -2.05631e-16)
(-2.21651e-16 0.0829934 3.40572 2.46309e-16 -4.0165e-18 -1.42625e-16)
(0 0.0801235 3.4353 2.37957e-16 -2.61977e-17 -1.46719e-16)
(2.19186e-16 0.0774284 3.46395 2.28872e-16 4.3195e-17 -1.59476e-16)
(2.17965e-16 0.0748688 3.49173 1.95336e-16 9.5833e-17 -2.06103e-16)
(0 0.0724075 3.51866 1.92146e-16 1.22591e-16 -2.37427e-16)
(2.15541e-16 0.0700066 3.54481 1.655e-16 1.7587e-16 -1.97892e-16)
(0 0.0677721 3.57017 1.15129e-16 1.95651e-16 -1.24669e-16)
(0 0.0656662 3.59483 1.60657e-16 1.98136e-16 -9.96803e-17)
(0 0.0635819 3.61877 1.89748e-16 1.93233e-16 -7.08587e-17)
(-2.10775e-16 0.0615881 3.64204 1.37121e-16 2.00788e-16 -9.74685e-17)
(0 0.0597535 3.66467 9.77082e-17 1.59564e-16 -1.01382e-16)
(0 0.0579377 3.68669 1.15244e-16 1.23414e-16 -1.44104e-16)
(0 0.05614 3.7081 1.46877e-16 1.73633e-16 -1.4899e-16)
(0 0.0544968 3.72893 1.1795e-16 1.95452e-16 -1.20277e-16)
(0 0.0529046 3.74921 8.49397e-17 1.68041e-16 -9.4827e-17)
(0 0.051328 3.76893 1.06069e-16 1.87306e-16 -1.21933e-16)
(0 0.0498346 3.78818 8.33465e-17 2.40621e-16 -1.83504e-16)
(0 0.0483896 3.80688 7.25881e-17 2.08454e-16 -1.85146e-16)
(0 0.0469923 3.82513 1.61267e-16 2.19127e-16 -1.42769e-16)
(0 0.045642 3.84293 1.77095e-16 2.67501e-16 -1.03644e-16)
(0 0.0443709 3.86026 1.13064e-16 2.51305e-16 -8.2222e-17)
(0 0.0431127 3.87714 8.74674e-17 2.64428e-16 -4.98029e-17)
(0 0.0418994 3.89358 1.32051e-17 2.76068e-16 -4.12246e-17)
(0 0.0407307 3.90964 -4.04063e-17 1.83176e-16 -2.07991e-17)
(0 0.0395736 3.92531 4.41907e-17 1.3114e-16 -4.76807e-17)
(0 0.0384601 3.94055 1.05485e-16 2.0794e-16 -3.97847e-17)
(0 0.037421 3.95546 5.46846e-17 2.71293e-16 -3.55361e-17)
(0 0.0363927 3.96996 -1.00043e-18 2.20114e-16 -6.89264e-17)
(0 0.035343 3.98412 2.5087e-17 1.74392e-16 -1.33798e-17)
(3.76961e-16 0.0343663 3.99794 7.05372e-17 1.71024e-16 6.88767e-17)
(0 0.0334305 4.01145 8.69906e-17 1.33305e-16 4.20425e-17)
(0 0.0325348 4.0246 1.16873e-16 1.19001e-16 -2.43218e-17)
(3.70692e-16 0.0316176 4.03743 1.20708e-16 1.65889e-16 1.09119e-17)
(0 0.0307093 4.04992 4.21959e-17 1.9414e-16 -1.22739e-17)
(0 0.029871 4.06218 -1.30322e-17 1.15999e-16 -2.93632e-17)
(-1.82264e-16 0.0290711 4.07409 1.22664e-18 7.44495e-17 1.68267e-17)
(3.62496e-16 0.0282495 4.08569 -1.93167e-17 1.4042e-16 -2.95878e-17)
(0 0.0274358 4.09703 -2.09132e-17 1.49028e-16 3.78881e-17)
(-1.79233e-16 0.0266602 4.1081 4.87383e-17 8.03402e-17 2.03597e-17)
(0 0.0259217 4.11885 1.18263e-16 1.46422e-17 -3.73529e-17)
(0 0.0251908 4.12936 9.10265e-17 3.14895e-17 -1.20879e-16)
(0 0.0244379 4.1396 -3.0358e-17 1.16641e-16 -1.55972e-16)
(1.7527e-16 0.0237507 4.14959 -1.22723e-16 1.01404e-16 -8.19518e-17)
(3.48586e-16 0.0230704 4.15934 -1.03794e-16 6.85872e-17 -1.2657e-16)
(0 0.0223683 4.16883 6.90223e-18 4.14642e-17 -9.22578e-17)
(-1.72355e-16 0.0217302 4.17807 8.04258e-17 8.00426e-17 -5.89498e-17)
(0 0.0210705 4.18705 6.79938e-17 1.23124e-16 -2.69386e-17)
(0 0.020417 4.19583 4.55805e-17 1.15586e-16 1.11296e-17)
(-3.38978e-16 0.0198266 4.20433 8.85108e-17 9.42491e-17 1.88895e-17)
(0 0.0191863 4.21262 1.29263e-16 1.15063e-16 -9.30509e-18)
(0 0.01858 4.22069 7.36389e-17 1.77943e-16 3.81662e-17)
(-1.6667e-16 0.0180077 4.22853 3.20719e-18 1.62792e-16 1.72865e-17)
(0 0.0174138 4.23615 -2.51647e-17 1.53055e-16 -7.59595e-18)
(3.29635e-16 0.0168259 4.24354 -2.79175e-17 1.16362e-16 7.35691e-17)
(0 0.016271 4.25074 -7.96364e-18 6.73927e-17 1.01789e-16)
(-3.2597e-16 0.0157219 4.25772 -4.73891e-17 4.58744e-17 5.50352e-17)
(0 0.0151784 4.26446 -5.66078e-17 5.77671e-17 3.29403e-18)
(0 0.0146405 4.27097 6.36383e-17 5.01297e-17 -7.78871e-18)
(0 0.0140816 4.2773 1.14382e-16 3.1969e-17 -1.00367e-16)
(0 0.0135547 4.28343 5.42779e-17 6.84345e-17 -1.61558e-16)
(3.16985e-16 0.0130334 4.28933 8.83541e-18 1.60719e-16 -2.67933e-17)
(0 0.0125174 4.29505 -1.69887e-17 1.72859e-16 1.43334e-16)
(0 0.0120327 4.30057 -4.49253e-17 6.24458e-17 1.87984e-16)
(3.11714e-16 0.0115274 4.30586 1.21529e-19 4.13282e-17 7.22133e-17)
(0 0.0110271 4.31096 2.61231e-17 7.5786e-17 1.87411e-16)
(0 0.0105322 4.31587 -5.14681e-17 5.10217e-17 1.58955e-16)
(0 0.010017 4.32055 -9.5657e-17 7.25939e-17 1.21038e-16)
(-3.04821e-16 0.00953245 4.32504 -9.29378e-17 9.80612e-17 9.74658e-17)
(-6.06245e-16 0.00907809 4.3293 -1.11597e-16 1.25012e-16 4.27005e-17)
(3.01433e-16 0.00860364 4.33338 -8.60574e-17 1.41069e-16 3.97789e-17)
(0 0.00810933 4.33727 -3.71739e-17 1.83666e-16 4.55686e-17)
(-2.98081e-16 0.00764486 4.34094 -5.2715e-17 1.84317e-16 1.0082e-16)
(0 0.00718544 4.34442 -5.3055e-17 1.15959e-16 6.13543e-17)
(0 0.00670646 4.34769 -2.36385e-17 1.59091e-16 3.3754e-17)
(-2.93124e-16 0.00623259 4.35077 7.03484e-17 1.57271e-16 1.18781e-17)
(0 0.00578785 4.35364 1.39556e-16 1.10688e-16 -5.21059e-17)
(0 0.00532409 4.35629 5.8709e-17 1.17901e-16 -8.49397e-17)
(-2.8825e-16 0.00484128 4.35873 -7.53402e-18 1.17332e-16 -2.6573e-17)
(0 0.00438746 4.36096 1.8293e-17 1.12291e-16 3.6231e-17)
(0 0.00393855 4.36297 9.99976e-17 9.6815e-17 -1.71136e-17)
(-2.83456e-16 0.00347113 4.36479 1.58587e-16 8.812e-17 -5.13999e-17)
(0 0.00300867 4.3664 1.24006e-16 1.23092e-16 6.21933e-17)
(0 0.0025745 4.36776 9.20315e-17 1.17971e-16 8.58773e-17)
(-2.78742e-16 0.0020991 4.36889 9.64382e-17 7.79205e-17 3.09933e-17)
(0 0.00162865 4.36983 4.94185e-17 3.62562e-17 4.78342e-17)
(0 0.00116365 4.37054 5.58347e-17 3.00429e-17 4.23719e-17)
(0 0.000703518 4.37102 3.06453e-17 1.28361e-16 1.64278e-18)
(0 0.000248736 4.37124 -1.12458e-16 7.25107e-17 2.11257e-16)
(0 0.974255 0.127266 -4.08539e-14 -4.57459e-14 5.2863e-14)
(0 0.877895 0.3508 -3.813e-14 1.09501e-14 4.0248e-14)
(-1.00517e-16 0.829545 0.570829 -1.31674e-14 2.56187e-14 1.41252e-14)
(0 0.773637 0.773637 -2.41068e-16 2.33281e-14 -2.5931e-16)
(0 0.71325 0.951398 6.42338e-15 1.74816e-14 -6.74047e-15)
(0 0.652252 1.10386 8.74683e-15 1.16172e-14 -8.86991e-15)
(0 0.594214 1.235 8.81863e-15 7.04391e-15 -8.88228e-15)
(0 0.541243 1.34935 7.9685e-15 3.90545e-15 -8.01962e-15)
(0 0.49404 1.45065 6.86757e-15 1.89143e-15 -6.93664e-15)
(0 0.452463 1.54169 5.79689e-15 6.23858e-16 -5.89339e-15)
(1.28162e-16 0.415975 1.6245 4.86417e-15 -1.47539e-16 -5.00381e-15)
(-1.27447e-16 0.383948 1.70056 4.10196e-15 -5.8992e-16 -4.21708e-15)
(0 0.355757 1.77091 3.48582e-15 -8.56117e-16 -3.55608e-15)
(-1.2603e-16 0.330834 1.83645 2.99743e-15 -1.02334e-15 -3.01126e-15)
(0 0.30869 1.89775 2.59117e-15 -1.11127e-15 -2.57487e-15)
(0 0.288951 1.95535 2.17205e-15 -1.15841e-15 -2.2399e-15)
(1.23934e-16 0.271217 2.0097 1.80531e-15 -1.14931e-15 -2.00115e-15)
(1.23244e-16 0.255267 2.06102 1.59809e-15 -1.05602e-15 -1.73174e-15)
(-2.45113e-16 0.240834 2.10975 1.43839e-15 -9.76926e-16 -1.46659e-15)
(0 0.227648 2.15597 1.24538e-15 -9.55006e-16 -1.28197e-15)
(0 0.21565 2.20004 1.09108e-15 -9.39631e-16 -1.1185e-15)
(0 0.204662 2.24202 9.57851e-16 -9.05971e-16 -1.02601e-15)
(0 0.194547 2.28215 8.46262e-16 -8.91847e-16 -8.955e-16)
(0 0.185213 2.32052 8.08696e-16 -8.44729e-16 -7.37786e-16)
(-2.37029e-16 0.176607 2.35729 7.60441e-16 -7.66499e-16 -6.54833e-16)
(0 0.168603 2.39253 6.75562e-16 -7.04117e-16 -6.01087e-16)
(0 0.161149 2.42635 5.8647e-16 -6.63682e-16 -5.41874e-16)
(-2.33087e-16 0.154239 2.4589 5.20985e-16 -6.55558e-16 -5.81183e-16)
(2.31788e-16 0.14771 2.49018 5.05213e-16 -6.00437e-16 -5.99531e-16)
(0 0.141632 2.5203 4.44473e-16 -5.26013e-16 -5.52076e-16)
(2.29211e-16 0.135923 2.54932 3.83999e-16 -5.02976e-16 -4.87512e-16)
(0 0.130538 2.57732 4.2378e-16 -4.7188e-16 -4.17918e-16)
(-2.26662e-16 0.125511 2.60433 4.332e-16 -3.8449e-16 -3.80912e-16)
(0 0.120761 2.63038 3.36381e-16 -3.04998e-16 -3.87766e-16)
(2.24142e-16 0.116246 2.65562 3.14575e-16 -3.11581e-16 -3.45432e-16)
(-6.68679e-16 0.111964 2.67993 3.7265e-16 -2.89826e-16 -2.90388e-16)
(2.21651e-16 0.107947 2.70349 3.28194e-16 -2.12259e-16 -2.4842e-16)
(0 0.104118 2.7263 2.53309e-16 -2.19364e-16 -2.35977e-16)
(0 0.100474 2.74839 2.78813e-16 -2.45725e-16 -1.93645e-16)
(-4.35929e-16 0.0970122 2.76973 2.98668e-16 -2.3683e-16 -1.18483e-16)
(0 0.0936945 2.79049 2.50047e-16 -2.17683e-16 -2.21752e-16)
(-2.15541e-16 0.090554 2.8105 2.41323e-16 -1.52921e-16 -2.52648e-16)
(0 0.0875529 2.83002 2.06807e-16 -6.53791e-17 -2.39367e-16)
(2.13145e-16 0.0846886 2.84892 1.43404e-16 -5.25027e-17 -1.31963e-16)
(0 0.0819595 2.86725 1.56469e-16 -7.94962e-17 -1.18079e-16)
(-2.10775e-16 0.0793282 2.88504 1.83362e-16 -1.0601e-16 -1.04781e-16)
(2.096e-16 0.0768284 2.90234 1.3148e-16 -1.14022e-16 -1.42375e-16)
(2.08432e-16 0.0744233 2.91911 7.1775e-17 -1.42377e-16 -1.74613e-16)
(2.0727e-16 0.0721117 2.93539 1.33199e-16 -1.54256e-16 -1.04124e-16)
(0 0.0698921 2.95123 1.83366e-16 -8.32369e-17 -6.26008e-17)
(0 0.0677632 2.96667 1.20424e-16 -4.90315e-17 -6.13923e-17)
(0 0.0656898 2.98162 8.26965e-17 -1.07975e-16 -7.99846e-17)
(0 0.0637384 2.99617 1.15416e-16 -1.38105e-16 -1.3153e-16)
(2.01557e-16 0.0618407 3.01033 9.50641e-17 -7.8552e-17 -1.39483e-16)
(0 0.059995 3.02412 1.01964e-16 -4.12578e-17 -9.59376e-17)
(0 0.0582678 3.03752 1.88543e-16 -2.9545e-17 -6.67027e-17)
(-1.98205e-16 0.0565579 3.05061 1.67618e-16 -2.66954e-17 -4.09325e-17)
(0 0.0548981 3.0633 1.04606e-16 -3.31234e-17 -3.07117e-17)
(0 0.0532876 3.07563 8.55356e-17 -3.81303e-17 -1.48382e-17)
(-1.94909e-16 0.0517581 3.0877 -2.07026e-17 -4.53689e-17 -2.87415e-17)
(1.93823e-16 0.0503086 3.09941 -7.8846e-17 -9.39099e-17 -5.60177e-17)
(-3.85485e-16 0.0488418 3.11081 5.49504e-17 -1.19213e-16 -7.70701e-18)
(0 0.0474531 3.12191 1.47468e-16 -7.34642e-17 2.33129e-18)
(0 0.0461106 3.13277 6.12797e-17 -6.72277e-17 -2.62913e-17)
(0 0.0447812 3.14325 -2.76361e-17 -4.55854e-17 -1.12519e-16)
(-3.76961e-16 0.043528 3.15354 9.35332e-18 1.82792e-18 3.82915e-17)
(-3.7486e-16 0.0423186 3.16356 3.98728e-17 -6.75163e-17 9.77202e-17)
(0 0.0411215 3.17328 5.80635e-17 -1.5045e-16 6.36952e-17)
(0 0.0399362 3.18278 1.21524e-16 -1.27278e-16 7.76917e-17)
(-3.68626e-16 0.0387936 3.192 1.29173e-16 -1.03986e-16 1.35861e-16)
(0 0.0377233 3.20101 2.51423e-17 -1.2949e-16 -2.33955e-17)
(3.64528e-16 0.0366641 3.20979 -4.71857e-17 -1.2751e-16 -1.53606e-16)
(0 0.0355851 3.21831 8.77395e-18 -1.45862e-16 -6.18752e-17)
(-3.60475e-16 0.034577 3.22661 9.60415e-18 -1.02272e-16 -5.22779e-17)
(3.58466e-16 0.0336089 3.23473 -3.62936e-17 -7.49543e-17 -2.07544e-17)
(3.56468e-16 0.032621 3.24258 -5.33908e-18 -1.54185e-16 -6.16457e-17)
(0 0.0316723 3.2503 7.69083e-17 -2.30239e-16 -7.14299e-17)
(0 0.0307627 3.25775 1.19367e-16 -2.29854e-16 -1.31004e-16)
(3.5054e-16 0.0298621 3.26503 1.04909e-17 -1.12389e-16 -1.93531e-16)
(0 0.0289997 3.27213 -1.17491e-16 -1.02638e-16 -1.372e-16)
(0 0.0281459 3.27901 -1.02637e-16 -1.23161e-16 -1.53913e-16)
(3.4471e-16 0.0273008 3.28571 1.36432e-17 -9.25248e-17 -1.53495e-16)
(-3.42789e-16 0.0264642 3.29223 9.70452e-17 -7.77039e-17 -2.08933e-17)
(0 0.0256644 3.29853 8.74378e-17 -7.99643e-17 -6.80559e-17)
(3.38978e-16 0.0248728 3.30474 5.07178e-17 -8.8762e-17 -3.62014e-17)
(0 0.0240891 3.31073 7.62588e-17 -9.92357e-17 -4.71306e-17)
(-3.35209e-16 0.0233414 3.31654 1.40286e-16 -8.42777e-17 1.18862e-16)
(0 0.0226012 3.32222 8.37368e-17 -7.29315e-17 1.02504e-16)
(0 0.0218685 3.32768 -5.31523e-18 -1.06287e-16 2.33965e-17)