/*--------------------------------*- C++ -*----------------------------------*\
| =========                 |                                                 |
| \\      /  F ield         | OpenFOAM: The Open Source CFD Toolbox           |
|  \\    /   O peration     | Version:  4.x                                   |
|   \\  /    A nd           | Web:      www.OpenFOAM.org                      |
|    \\/     M anipulation  |                                                 |
\*---------------------------------------------------------------------------*/
FoamFile
{
    version     2.0;
    format      ascii;
    class       volVectorField;
    location    "98.61";
    object      U;
}
// * * * * * * * * * * * * * * * * * * * * * * * * * * * * * * * * * * * * * //

dimensions      [0 1 -1 0 0 0 0];

internalField   nonuniform List<vector> 
15625
(
(0.0005136619269200728 -2.2406964524318353e-11 -2.2406964524325235e-11)
(0.0014176253539262152 2.3753511726866976e-08 -1.9706583061146347e-08)
(0.002244220490636596 2.4949127780491817e-07 -1.0897885445449649e-07)
(0.003026379592650518 9.922668910753576e-07 -2.840694798176384e-07)
(0.003777587128633182 2.5746428103165772e-06 -5.320969489696681e-07)
(0.004505082413251944 5.273877280271411e-06 -8.377738082768345e-07)
(0.0052132780785391665 9.304011137907417e-06 -1.1844145141421679e-06)
(0.005905000525893668 1.4857606366393103e-05 -1.5720305235160726e-06)
(0.006582043665608359 2.2123748148138518e-05 -2.0012385753763933e-06)
(0.007245446672446988 3.133319912137121e-05 -2.4856869072261402e-06)
(0.007895650378052864 4.275744971453511e-05 -3.034920517573826e-06)
(0.008532603157811148 5.669945418746034e-05 -3.6519128437993546e-06)
(0.009155816849761899 7.348194862568108e-05 -4.339421683771799e-06)
(0.009764435856375134 9.339512387159397e-05 -5.084444008575845e-06)
(0.010357343580728302 0.00011667434605472092 -5.866179671505894e-06)
(0.010933208664851589 0.0001434678561369633 -6.663628970856563e-06)
(0.011490607503477503 0.00017380528997347808 -7.448451597269839e-06)
(0.012028077821934222 0.00020760779108347507 -8.188419498233465e-06)
(0.012544247106997726 0.00024466227519053576 -8.860588483436816e-06)
(0.013037843677038839 0.000284669423188847 -9.44514517142847e-06)
(0.01350781138861608 0.0003272238232584531 -9.92321254329215e-06)
(0.013953284658935831 0.0003718699425712016 -1.0282815932153904e-05)
(0.014373671836566713 0.00041810299324214847 -1.0523346822107162e-05)
(0.01476860156475607 0.00046540885118622583 -1.0645755112626804e-05)
(0.015137960697305717 0.0005132710838975849 -1.065184603402117e-05)
(0.015481845394504723 0.0005611964879294102 -1.0548939316310366e-05)
(0.015800581378796166 0.0006087222061340138 -1.0350660904469517e-05)
(0.016094648706820897 0.0006554260613303557 -1.0068795920613138e-05)
(0.016364702343774965 0.0007009378280946051 -9.712366872037056e-06)
(0.01661150095666242 0.0007449255643697481 -9.29236330928663e-06)
(0.01683593307948588 0.0007871164911018117 -8.82289041053195e-06)
(0.017038940393543932 0.0008272688148846596 -8.316113833091668e-06)
(0.01722151937405965 0.0008652061812118948 -7.77890466117136e-06)
(0.0173847024795539 0.0009007715386430446 -7.2182023540135394e-06)
(0.017529537780680757 0.0009338582461624929 -6.643250014319138e-06)
(0.017657100148850097 0.0009643760714971596 -6.063418826709096e-06)
(0.017768437974585202 0.0009922812411023948 -5.4835629004605775e-06)
(0.017864607225897083 0.0010175520659422234 -4.906619939123872e-06)
(0.01794664322994822 0.0010401870153270184 -4.33703461218414e-06)
(0.01801556431141543 0.0010602038167385143 -3.7806949374714143e-06)
(0.018072375282037728 0.0010776352956727625 -3.2420196222033826e-06)
(0.018118012900875932 0.0010925433525563828 -2.721975371680672e-06)
(0.01815341859734433 0.001104997415696273 -2.221422562800746e-06)
(0.01817946589956262 0.0011150766387292576 -1.7431067349946053e-06)
(0.018197020304228567 0.001122866380517694 -1.2904112141406837e-06)
(0.018206893036587315 0.001128463226686723 -8.640566887059366e-07)
(0.01820983830954055 0.0011319753831721274 -4.6198948535606037e-07)
(0.018206607199417243 0.0011335081069927223 -8.236651299976362e-08)
(0.01819789433755266 0.0011331473181400652 2.7546436244470013e-07)
(0.01818439657336051 0.0011309777315244723 6.120121592846089e-07)
(0.018166747573667562 0.0011270840961135659 9.286321208437687e-07)
(0.018145544703663984 0.0011215522786340785 1.2272795263730515e-06)
(0.018121357989230986 0.0011144616125541211 1.5096921140544972e-06)
(0.018094669746491505 0.001105872107446811 1.7769934836488377e-06)
(0.01806595554542447 0.0010958431143599093 2.0301573159737265e-06)
(0.018035618035826127 0.0010844352676540776 2.269214343176762e-06)
(0.01800402311691612 0.0010717110786243526 2.4936418191344105e-06)
(0.017971506721360435 0.0010577416037264446 2.7020589799656217e-06)
(0.017938326879933297 0.0010426134063826204 2.89126444075573e-06)
(0.017904735649881678 0.0010264187182275856 3.0580972172088834e-06)
(0.017870957842558245 0.0010092604904644682 3.203030529606023e-06)
(0.017837205070026358 0.0009912496535268147 3.328731883283585e-06)
(0.01780369983987088 0.0009724879693035558 3.4375756422450685e-06)
(0.01777068152368477 0.00095304952703286 3.5310368230878695e-06)
(0.01773839982651085 0.0009330059517889168 3.610516948550426e-06)
(0.017707125542531673 0.000912422920348077 3.6776342998628277e-06)
(0.017677147136762394 0.0008913626223079101 3.734178874503012e-06)
(0.017648749342614695 0.0008698844556426967 3.7814660549424034e-06)
(0.017622186610681528 0.0008480352702075685 3.819249089384638e-06)
(0.01759771297158813 0.0008258610833621112 3.847035416179945e-06)
(0.017575569530616935 0.00080341288296346 3.865361816943376e-06)
(0.01755598649660549 0.0007807463729568273 3.8757016082122215e-06)
(0.01753917533019862 0.0007579157015542313 3.879146111314418e-06)
(0.017525252780744502 0.0007349623787886619 3.874950556644418e-06)
(0.017514311013740718 0.000711926173870376 3.861870876678732e-06)
(0.017506379680773655 0.0006888626789340035 3.838486915243022e-06)
(0.0175014135289279 0.0006658461233807189 3.803175208561217e-06)
(0.01749936486829961 0.0006429534362739645 3.7546397687246213e-06)
(0.017500207320634217 0.0006202600876029246 3.69369810665346e-06)
(0.017503920699336675 0.0005978421728569155 3.6219790681160233e-06)
(0.01751047334013492 0.0005757520222557248 3.5431579482823027e-06)
(0.017519816630986805 0.0005540037506813639 3.4640556759728553e-06)
(0.017531908869549723 0.00053260536600828 3.3909624408637093e-06)
(0.017546786586084016 0.0005115416656298078 3.32278742754358e-06)
(0.01756452292272456 0.0004907863606984578 3.2549797476448416e-06)
(0.017585168290144112 0.0004703290723251752 3.18521984073384e-06)
(0.01760872733124476 0.0004501912818459764 3.115684994184656e-06)
(0.017635194800568195 0.0004303939622196433 3.0490062600676155e-06)
(0.01766452816623212 0.00041091430748834443 2.9866612024834743e-06)
(0.017696662737283493 0.00039170435968770555 2.929489860647997e-06)
(0.017731542462204517 0.00037272798182396767 2.877335509041915e-06)
(0.017769134693858518 0.0003539779375605848 2.827809418684003e-06)
(0.017809405424872818 0.0003354524958678606 2.778147381669052e-06)
(0.017852289512047807 0.00031716900818812727 2.7255011271863684e-06)
(0.01789770121778455 0.00029915674386943704 2.6669409941840637e-06)
(0.017945499060558638 0.00028145039586859207 2.601175584734889e-06)
(0.017995421292564557 0.0002640954434507322 2.5307176282572974e-06)
(0.018047193229108208 0.00024713940883447117 2.458113872108222e-06)
(0.018100645533222687 0.00023062486009155057 2.3805557028333912e-06)
(0.018155666054467924 0.0002145921361266495 2.292155968561929e-06)
(0.018212057319934458 0.00019909004672544065 2.1920717381403584e-06)
(0.01826945856273171 0.00018418285313735982 2.0895150568440353e-06)
(0.018327483840639168 0.00016992412981622028 1.9938647041897777e-06)
(0.018385769804968102 0.00015626649373818533 1.9055782945355589e-06)
(0.01844395766049358 0.00014311737848690022 1.8210740103375451e-06)
(0.0185017301554542 0.0001304540007668432 1.7367214664299463e-06)
(0.01855883340085359 0.00011835377007652534 1.6488929902609882e-06)
(0.01861500116188881 0.0001068898686328664 1.554466922220219e-06)
(0.018669917131529 9.607579253845681e-05 1.4529544122549642e-06)
(0.01872324864434396 8.591361481633889e-05 1.3444542938220824e-06)
(0.018774740154676003 7.649477996632097e-05 1.2265493087080134e-06)
(0.018824199653949356 6.798653216729043e-05 1.0947169320536287e-06)
(0.018871348299917292 6.0483586158634803e-05 9.518407258933306e-07)
(0.018915717005119903 5.3908710101945675e-05 8.175386430967969e-07)
(0.018956865051700713 4.815691100642591e-05 7.101822952115281e-07)
(0.018994747292920444 4.310869042091018e-05 6.237823650897675e-07)
(0.019029458041763612 3.864000367381687e-05 5.437670363997859e-07)
(0.01906082189704727 3.469506326864423e-05 4.7484076477122175e-07)
(0.019088411623255794 3.127922290433372e-05 4.3968658076309476e-07)
(0.019111928748672867 2.8066900556460714e-05 4.513490634496802e-07)
(0.019131367288911377 2.405588976673928e-05 5.012571617963534e-07)
(0.019146759810898903 1.8730890139013092e-05 5.773005113656341e-07)
(0.01915814842851659 1.4210717339119038e-05 6.642088225795494e-07)
(0.019165580040571766 1.3418577352266221e-05 7.454309340986553e-07)
(0.019169104538698026 1.937609463363511e-05 8.038532121056512e-07)
(0.0014176253539262154 -1.9706583061146357e-08 2.3753511726866972e-08)
(0.004053450773500322 -1.0187704723382749e-07 -1.018770472338275e-07)
(0.006511424697721409 2.1193714074415508e-07 -7.749813779804946e-07)
(0.008849820651784227 1.7054643333112307e-06 -2.1207223704286744e-06)
(0.011100508636630297 5.213933130199362e-06 -4.08022657907958e-06)
(0.013282485994524983 1.1513188165151234e-05 -6.558320796807484e-06)
(0.015407876192365335 2.1293752310216847e-05 -9.460890306380644e-06)
(0.01748462951357476 3.521478770678506e-05 -1.2779951862802846e-05)
(0.01951783648724029 5.394758801688378e-05 -1.6531446551350488e-05)
(0.021510443353320682 7.823606150682574e-05 -2.0791989249197466e-05)
(0.023463652869250996 0.00010889005056621123 -2.561536193638447e-05)
(0.025377216310608294 0.0001467545907773826 -3.101111651807347e-05)
(0.027249596314479055 0.0001926657597005259 -3.696015985240486e-05)
(0.02907815591307395 0.00024733834437567635 -4.334841181491626e-05)
(0.030859482087931475 0.00031132036485821327 -5.0006894278948896e-05)
(0.03258953269746555 0.00038491427101517193 -5.6746392982466876e-05)
(0.03426399533444971 0.0004681192710725179 -6.334099584145243e-05)
(0.03587844895838321 0.0005606615976830769 -6.95481303566074e-05)
(0.037428762472057876 0.000661938075263605 -7.517878909560775e-05)
(0.038911116461401885 0.0007711341822057613 -8.006964620541316e-05)
(0.04032234510113799 0.0008871779426058652 -8.408392182039478e-05)
(0.041659862584487915 0.0010088767537474244 -8.713216442133898e-05)
(0.042921916678566166 0.0011349212890927884 -8.919801620945032e-05)
(0.04410741517100924 0.0012639756927928063 -9.028596113612253e-05)
(0.04521603794834197 0.0013946937807234481 -9.041980383340127e-05)
(0.04624809515130909 0.001525785969332215 -8.965789297240095e-05)
(0.04720458829625034 0.0016560371542004002 -8.809719551673694e-05)
(0.04808697707829231 0.001784327163230522 -8.582926666398089e-05)
(0.048897239606094337 0.0019096578009160801 -8.293589668110425e-05)
(0.049637666028195686 0.002031130271154837 -7.950865595628102e-05)
(0.05031093788494957 0.0021480011076734475 -7.565366074312466e-05)
(0.05091989263240904 0.0022596028956246568 -7.14660246844882e-05)
(0.05146752352386391 0.002365429395251515 -6.701047021186808e-05)
(0.05195693126391971 0.0024650253119706286 -6.235089267198842e-05)
(0.05239126543603512 0.0025580770986389145 -5.755797645932854e-05)
(0.052773756023384896 0.002644314565830712 -5.2702004739872636e-05)
(0.053107549124886466 0.0027235805615953754 -4.782719988400827e-05)
(0.05339581168732911 0.0027957717327824253 -4.296682007714182e-05)
(0.053641651425704165 0.0028608499280373535 -3.8159118111899986e-05)
(0.053848127608763376 0.0029188391635423124 -3.344718047495826e-05)
(0.05401825695224223 0.002969799110557066 -2.8865610027074488e-05)
(0.05415484735392032 0.003013857053147652 -2.44290482739815e-05)
(0.05426072065088263 0.003051161427584888 -2.0151136309953793e-05)
(0.054338498389922725 0.0030819054186353857 -1.6052958880677562e-05)
(0.054390779258493976 0.0031063051191705716 -1.215805239613464e-05)
(0.0544199977401467 0.0031245987889801665 -8.47357577089331e-06)
(0.05442841583274197 0.0031370475882644415 -4.989623195151465e-06)
(0.05441828747518755 0.003143913652562926 -1.696611812004376e-06)
(0.05439170169096629 0.003145437689627226 1.4108738698694712e-06)
(0.05435075508161995 0.0031418627134503344 4.337968978792026e-06)
(0.05429735377782912 0.003133422370356446 7.094157210736924e-06)
(0.05423329441889684 0.0031203469180302863 9.692044657650614e-06)
(0.054160290357855426 0.0031028581056758756 1.2143801434044532e-05)
(0.05407978874582184 0.003081146692806846 1.4459867308640491e-05)
(0.05399321595231779 0.0030554033809547386 1.664997625891679e-05)
(0.05390177849036401 0.0030258021508599224 1.871634111189996e-05)
(0.05380657194326775 0.0029925104227443893 2.0656790499851145e-05)
(0.05370859936227175 0.002955718233197005 2.246236175647214e-05)
(0.05360862452138378 0.002915656787549942 2.4109603617285555e-05)
(0.05350739268701236 0.002872571474661783 2.5575096737945574e-05)
(0.05340557157507006 0.0028267264676532394 2.686084832982111e-05)
(0.05330379174584774 0.0027784012418603787 2.7984208897599643e-05)
(0.053202720158839846 0.002727860426714331 2.8961906099453985e-05)
(0.05310308337244719 0.0026753187065310957 2.98078453433999e-05)
(0.0530056404753004 0.0026209863807149397 3.053601669439567e-05)
(0.052911213323772875 0.0025650342696240717 3.116168992392491e-05)
(0.05282067652913225 0.002507607111217496 3.170120953415167e-05)
(0.05273489071025402 0.0024488493961567375 3.21657024587789e-05)
(0.05265461663845094 0.0023888960450608172 3.254941029319307e-05)
(0.05258061211526921 0.0023278849211925364 3.284370668613843e-05)
(0.05251359757381683 0.002265972463335049 3.304879823622158e-05)
(0.05245426202394139 0.002203332600933672 3.3172911402104415e-05)
(0.052403240825682415 0.002140139668051631 3.3222564522414784e-05)
(0.05236089572271194 0.0020765494444947535 3.319532057234618e-05)
(0.0523275172094244 0.0020127169558543426 3.308636695815321e-05)
(0.052303192877420475 0.001948804328355043 3.289066034343788e-05)
(0.052287767208549815 0.001884981257508641 3.26029053652433e-05)
(0.05228108077874896 0.001821421196134282 3.221931527123755e-05)
(0.05228306588502976 0.0017582919861549688 3.174524955139492e-05)
(0.05229368334718946 0.0016957621896277115 3.11897285242072e-05)
(0.05231284728150324 0.0016339575917587858 3.057637558411921e-05)
(0.05234040151031759 0.0015729346536446159 2.9951309828785473e-05)
(0.05237621044288988 0.0015127387831894213 2.935739676851863e-05)
(0.05242038677706349 0.0014533677700968232 2.878930143540396e-05)
(0.05247315942128105 0.0013947970872724069 2.821912403516191e-05)
(0.052534683658162516 0.0013370278201787784 2.7633206700238063e-05)
(0.05260496659689048 0.00128011195740552 2.7046561553977192e-05)
(0.05268398527775577 0.0012240981112335216 2.647753883795529e-05)
(0.05277161463723847 0.001168937458553328 2.5941039069675214e-05)
(0.05286766867963596 0.0011145251523356622 2.5450165711179593e-05)
(0.052971983547288694 0.0010607740171407545 2.5006566630946463e-05)
(0.053084456753883166 0.001007642006176526 2.4585967571927547e-05)
(0.05320498055088731 0.0009551008776975504 2.4160174295732384e-05)
(0.05333335532003789 0.0009032156866475233 2.370363230857356e-05)
(0.05346932055786966 0.0008521094596701703 2.3192131288182505e-05)
(0.05361245123017405 0.0008019080346451412 2.2614819790636133e-05)
(0.05376196768992825 0.0007527372247427262 2.1991817327488513e-05)
(0.0539170509104178 0.0007047244453102436 2.13442207094554e-05)
(0.05407718288019389 0.000657984285813168 2.0656318531758116e-05)
(0.05424200850792348 0.0006126255257789239 1.9891264838417872e-05)
(0.05441093465036577 0.0005687697640102981 1.904367522715895e-05)
(0.0545829138851553 0.0005265607903738021 1.8170921323052406e-05)
(0.05475682083004777 0.00048612337449607736 1.7332209220322907e-05)
(0.054931544040171094 0.0004474028362697095 1.653681914233227e-05)
(0.055105961465906975 0.0004102639625046829 1.5771390005363025e-05)
(0.0552790998140241 0.0003746678082873066 1.5015346681957372e-05)
(0.0554502107228273 0.00034071397775373277 1.423823006600395e-05)
(0.055618510194904214 0.0003085131452704794 1.3411848622822497e-05)
(0.05578305724130488 0.00027817055073780996 1.2524598989749405e-05)
(0.0559428600039819 0.00024979693306537414 1.1569453839834734e-05)
(0.05609715731368759 0.00022358735156517443 1.0540969351672968e-05)
(0.05624537805064496 0.000199808537435077 9.435221224242635e-06)
(0.05638668609806492 0.0001785892950546578 8.286686119924874e-06)
(0.056519664487325726 0.00015973848669138588 7.21503503433794e-06)
(0.05664298107894813 0.00014300564711443233 6.331167864714734e-06)
(0.056756498561836975 0.0001280743035133862 5.604279251993394e-06)
(0.05686050210959064 0.0001146053069005825 4.954010851608988e-06)
(0.05695448680082532 0.00010244164232731717 4.4179038455316105e-06)
(0.05703720988740653 9.159002541820713e-05 4.143459924983674e-06)
(0.05710779048478296 8.12510194082711e-05 4.2166471547790045e-06)
(0.057166173030264736 6.897606411574555e-05 4.585720570495633e-06)
(0.05721241808520964 5.3518341264946564e-05 5.170663315264076e-06)
(0.05724664897363821 4.011859966588996e-05 5.84560370049179e-06)
(0.05726901304852411 3.59992496417582e-05 6.468453198138358e-06)
(0.05727966686722111 4.862583877194917e-05 6.892295488456085e-06)
(0.002244220490636596 -1.089788544544965e-07 2.494912778049179e-07)
(0.006511424697721409 -7.749813779804946e-07 2.1193714074415548e-07)
(0.010553319281062828 -1.2566653903902243e-06 -1.256665390390224e-06)
(0.014425043791740125 -3.524583303981573e-07 -4.433972743427968e-06)
(0.0181639391880484 3.2061541388053235e-06 -9.230272007409895e-06)
(0.021795164014638133 1.0645386586665143e-05 -1.5459842433726696e-05)
(0.02533586052589128 2.3142142375588386e-05 -2.296426216321547e-05)
(0.02879767601202327 4.186880780463918e-05 -3.17249467295847e-05)
(0.03218815380183409 6.804145213368175e-05 -4.1798188197653576e-05)
(0.03551160898614393 0.00010295114311988912 -5.3316667255769886e-05)
(0.038769624548266025 0.0001479356240420206 -6.636043371149138e-05)
(0.0419614663694138 0.00020431932858959196 -8.090549344880601e-05)
(0.04508433377780212 0.0002733314002187281 -9.681688781092939e-05)
(0.04813364406123468 0.0003559638652455188 -0.00011377196109788138)
(0.05110356987229565 0.0004529231819539533 -0.00013132754329494396)
(0.05398729839833145 0.0005645228144003337 -0.00014897087083152465)
(0.05677761241195637 0.0006906376592399286 -0.00016613766238315997)
(0.059467153299134476 0.0008307552188478625 -0.00018224898054243548)
(0.06204909979202703 0.0009839097341789223 -0.000196832304306751)
(0.06451717524890481 0.001148850203143255 -0.00020948174865484027)
(0.06686621100181375 0.001323989314048154 -0.0002198870663982338)
(0.06909201442581943 0.0015075826919215593 -0.0002278426468130818)
(0.07119179081530436 0.0016977370802905567 -0.00023329545713598795)
(0.07316383292974844 0.0018925274323854785 -0.0002362553804131053)
(0.07500770217681116 0.00209001962119009 -0.00023679735835108496)
(0.07672399871396947 0.0022883547299173317 -0.00023506562398739427)
(0.07831446183486739 0.0024857730363584346 -0.00023128022182666952)
(0.07978157714804933 0.0026806421908138925 -0.00022566289188341023)
(0.08112867307952239 0.002871494390115607 -0.00021843122896521237)
(0.08235958989549105 0.00305699871946606 -0.00020981723089791805)
(0.0834788090725932 0.0032360398377641207 -0.00020007184828837806)
(0.08449106439600804 0.003407606615691854 -0.00018942645620888428)
(0.0854013345039939 0.0035709114498185257 -0.00017805740905251427)
(0.08621477342578697 0.0037252378237168015 -0.00016613682212174614)
(0.08693661121704434 0.003870073524778463 -0.00015383444150907)
(0.08757221025035436 0.004004967234700023 -0.00014131686608631427)
(0.08812679346228433 0.004129628213204394 -0.00012870416033366553)
(0.0886056183253831 0.004243841527728407 -0.0001160970661010563)
(0.08901384351811313 0.004347494160492953 -0.0001035962376662318)
(0.08935654685293908 0.004440570139027916 -9.130246235007659e-05)
(0.0896387350049464 0.004523105372036424 -7.930171119229727e-05)
(0.08986506693819968 0.004595235308923766 -6.7644881729415e-05)
(0.09004022404452498 0.0046571278023523665 -5.638009364358998e-05)
(0.09016855192583073 0.00470903082897881 -4.555921476935096e-05)
(0.09025435740171271 0.0047512307143589136 -3.523512001205683e-05)
(0.0903016858773306 0.004784045960208766 -2.5429691937779433e-05)
(0.0903143080583953 0.004807828321153155 -1.613251928806968e-05)
(0.09029598230510452 0.0048229391302863555 -7.331399912102447e-06)
(0.09025019364246464 0.004829735347045253 9.85887604408219e-07)
(0.09018044065121594 0.004828582972788479 8.832527640975663e-06)
(0.0900899109857826 0.004819835608337186 1.6228138969383406e-05)
(0.08998161440518382 0.004803843005474062 2.3197057589622993e-05)
(0.0898584150925591 0.004780947692686655 2.9765631623439177e-05)
(0.08972271720865554 0.004751458054001058 3.5963414658675446e-05)
(0.08957688783374725 0.004715684131369352 4.181919462088437e-05)
(0.08942292827623731 0.00467390457688616 4.734135928981135e-05)
(0.08926265513647279 0.004626384759532284 5.252646190855437e-05)
(0.08909771869456294 0.004573416483212602 5.7356430891785195e-05)
(0.08892934471345663 0.004515336639308734 6.178197942562144e-05)
(0.08875872608904505 0.004452500020966343 6.575357109213482e-05)
(0.08858695254298693 0.004385279622691105 6.927270892910678e-05)
(0.08841506730257725 0.004314065139066658 7.237168924567281e-05)
(0.0882441872743087 0.004239233140634636 7.508581900691165e-05)
(0.08807555970128378 0.004161108608256453 7.745502365473836e-05)
(0.08791049098957486 0.004080012600886269 7.952100603786011e-05)
(0.08775038379710214 0.0039961946503332115 8.132472385393382e-05)
(0.08759672311363945 0.003909856395113018 8.290705044115891e-05)
(0.08745096125073801 0.00382120535695806 8.429435090608113e-05)
(0.08731435448939501 0.0037304548395996006 8.54665333213142e-05)
(0.08718814805815983 0.0036378271444664186 8.639528949792052e-05)
(0.0870735220933708 0.003543579340040414 8.707269397409246e-05)
(0.08697160173085755 0.003448001093299398 8.750929715972691e-05)
(0.08688343451341238 0.003351387946701061 8.771460587081998e-05)
(0.08680966254227682 0.003254025028195833 8.769001176835078e-05)
(0.08675082194786121 0.0031562009365750958 8.743496855235739e-05)
(0.08670707024180266 0.0030581782639516712 8.695135900342764e-05)
(0.08667811122220054 0.0029601869163539403 8.624395256638819e-05)
(0.08666364994063709 0.002862457355118406 8.531892277624378e-05)
(0.08666360854747107 0.002765200729180931 8.418834778820457e-05)
(0.08667797998559881 0.0026686249276197263 8.28672838842079e-05)
(0.08670665489260453 0.002572895558712611 8.140247450282415e-05)
(0.0867493676797292 0.0024781090075191915 7.988956228864107e-05)
(0.0868058846015145 0.0023843520426825885 7.841791315961954e-05)
(0.08687639358224392 0.0022916671048361387 7.697897244062955e-05)
(0.08696127979708901 0.0022000765692237107 7.551839438291523e-05)
(0.08706079395585169 0.002109624432820843 7.401131302655716e-05)
(0.08717491690698502 0.002020396518732744 7.249208832730932e-05)
(0.08730358167656091 0.0019324714794627272 7.100299676636833e-05)
(0.0874466053847306 0.0018457974019453678 6.958793826558213e-05)
(0.08760373460434911 0.0017602474400932298 6.829219262779202e-05)
(0.08777472774343498 0.0016757108602553016 6.712545767794511e-05)
(0.08795938685811744 0.0015921200997190874 6.601656330980179e-05)
(0.088157496704652 0.0015094275948983233 6.488279697961614e-05)
(0.0883686908976917 0.0014277544037436503 6.365553788277582e-05)
(0.08859250246247853 0.0013473263727607357 6.227405863914772e-05)
(0.08882821643425096 0.0012683618586022086 6.0711365601854165e-05)
(0.0890745871169701 0.0011910506754555703 5.9018516750347566e-05)
(0.08933030240510711 0.0011155816559521852 5.725019963633483e-05)
(0.08959445115804941 0.0010421297261845046 5.5379419552130626e-05)
(0.08986633587451795 0.0009708641056502763 5.3332329107721554e-05)
(0.09014495190803276 0.0009019633700851694 5.109715501865883e-05)
(0.09042871623704138 0.0008356199657901089 4.878607891461952e-05)
(0.09071591122305976 0.0007720080358328548 4.651675107194026e-05)
(0.09100462888077096 0.0007111273376279424 4.43217332921505e-05)
(0.09129284723070641 0.0006528991916069215 4.219496134185945e-05)
(0.09157886155752105 0.0005972975192664046 4.01029196518174e-05)
(0.09186144260385247 0.0005443724624996931 3.797360721403308e-05)
(0.0921393163329151 0.000494205718946586 3.573641099149547e-05)
(0.09241097672247478 0.0004469919141817523 3.3347285906780534e-05)
(0.09267484002270202 0.00040296101975365473 3.0771733955309466e-05)
(0.09292966113958995 0.00036233488189601 2.8023440192080177e-05)
(0.09317447317197092 0.00032532866010751287 2.515728895988046e-05)
(0.09340789387077249 0.00029199794064970315 2.2282994310073737e-05)
(0.09362763443621468 0.00026203799720778565 1.9627005025941564e-05)
(0.09383153224849407 0.00023507238011819098 1.7395047395536313e-05)
(0.0940192616828785 0.00021063443224518828 1.5536471067726325e-05)
(0.09419115140777005 0.00018822622144327775 1.3911916795186286e-05)
(0.0943464449626921 0.00016760625962352978 1.2611958606691359e-05)
(0.09448337194614834 0.0001487641026724447 1.194160140144799e-05)
(0.09460060721644292 0.00013062860082359065 1.2079179261296151e-05)
(0.0946978551894848 0.00010995823150333104 1.2920402663010489e-05)
(0.09477500488151064 8.511861994017822e-05 1.429302307451816e-05)
(0.09483221809936299 6.312930802938916e-05 1.588632811121996e-05)
(0.09486974364723307 5.3653900078462754e-05 1.7342355164316933e-05)
(0.09488784574954305 6.668128041416188e-05 1.829098082662362e-05)
(0.003026379592650519 -2.840694798176384e-07 9.92266891075358e-07)
(0.008849820651784229 -2.1207223704286744e-06 1.70546433331123e-06)
(0.014425043791740127 -4.433972743427968e-06 -3.524583303981569e-07)
(0.019798512082611103 -5.579364519525772e-06 -5.579364519525773e-06)
(0.025005947337447647 -3.877569886467744e-06 -1.3854653067433114e-05)
(0.030073829989402504 2.3254159838373533e-06 -2.4925485184147188e-05)
(0.03502132592614851 1.4678163846336834e-05 -3.8606016209342505e-05)
(0.03986188731798627 3.487076783511803e-05 -5.4892646104029194e-05)
(0.044604267369235014 6.466933026756109e-05 -7.389349187235657e-05)
(0.04925327725698775 0.00010590920471420494 -9.577110851909608e-05)
(0.05381024853955125 0.00016042824212461447 -0.00012057484540881282)
(0.05827349831520236 0.00022997175585739036 -0.0001481608272330075)
(0.06263862938197313 0.0003160739664700266 -0.0001781593388988962)
(0.06689891806041448 0.00041989789652529933 -0.0002099150467489586)
(0.07104603765911036 0.0005421998867557504 -0.00024258506214944574)
(0.07507042905952173 0.0006832093392279263 -0.0002752083303043045)
(0.07896209558620604 0.000842615700649951 -0.00030677942974003894)
(0.08271094622636815 0.0010196413218461643 -0.0003363001054727526)
(0.08630773795690495 0.0012129845186712163 -0.00036295009603470326)
(0.08974403777580185 0.0014210244220183956 -0.0003860331589167051)
(0.09301299989172108 0.0016417834627719726 -0.00040504641233473184)
(0.09610913935043376 0.0018731183568475147 -0.0004196579971868852)
(0.09902890331375827 0.002112733809070812 -0.00042977610870120747)
(0.10177022356561036 0.0023583103021578137 -0.00043542497706959907)
(0.10433275871157346 0.0026075320761320474 -0.00043675278993302464)
(0.10671756832281176 0.002858168739953779 -0.00043401249323906505)
(0.10892724593044574 0.0031081019370028666 -0.0004275700411191363)
(0.11096538660815546 0.003355358668726956 -0.0004178073632300748)
(0.11283671410862504 0.003598154399713943 -0.000405116575031603)
(0.11454663370554569 0.003834857373219823 -0.0003899061958207529)
(0.11610139860112792 0.004064078102505381 -0.00037260268505012696)
(0.11750760203792193 0.004284545585765139 -0.0003536056714921502)
(0.11877216141180286 0.004495247476784853 -0.0003332378830555246)
(0.11990222754928778 0.0046952512484414585 -0.00031181290700346676)
(0.12090502703539951 0.004883859105308713 -0.00028962325746556756)
(0.12178796475212283 0.005060442192570895 -0.0002669544255976174)
(0.12255826895030107 0.005224565042898557 -0.00024402908429436727)
(0.12322322254734326 0.005375882250335008 -0.00022104431178437137)
(0.12378995732598216 0.005514174856915516 -0.00019818591198833763)
(0.12426547944642695 0.005639344164306441 -0.0001756293637552765)
(0.12465670309108773 0.005751358887113004 -0.0001535304747859656)
(0.12497007669236539 0.005850320508488231 -0.00013199788156707427)
(0.12521207765417494 0.005936371710806816 -0.00011113499561848655)
(0.12538869398965954 0.006009762432010227 -9.103613303547061e-05)
(0.12550585206036394 0.006070792253080832 -7.179203125159168e-05)
(0.1255691539699166 0.006119806372948491 -5.344883763812254e-05)
(0.12558386074490235 0.006157197209566804 -3.60062342587718e-05)
(0.12555521665369943 0.006183375105578839 -1.945879334436864e-05)
(0.12548808008011422 0.006198765492191641 -3.7923589293350315e-06)
(0.12538732891236057 0.006203809756964728 1.1010412449322628e-05)
(0.12525742594674447 0.006198946119629973 2.497762603947121e-05)
(0.12510259882303945 0.006184616512991809 3.814524644091627e-05)
(0.12492686064313856 0.006161255635082519 5.055508548602665e-05)
(0.12473355467761993 0.006129258879654483 6.226016964994293e-05)
(0.12452596855202044 0.0060890261049067 7.331301180910576e-05)
(0.12430688250590406 0.006040933103052249 8.373027823343956e-05)
(0.12407882046821771 0.005985348282218417 9.350790920386454e-05)
(0.12384404593384422 0.005922657228885019 0.00010262174169836614)
(0.12360416928527329 0.005853265983272548 0.00011100471650000517)
(0.1233607508113139 0.005777596998574532 0.00011858925920081587)