/*--------------------------------*- C++ -*----------------------------------*\
| =========                 |                                                 |
| \\      /  F ield         | OpenFOAM: The Open Source CFD Toolbox           |
|  \\    /   O peration     | Version:  2306                                  |
|   \\  /    A nd           | Website:  www.openfoam.com                      |
|    \\/     M anipulation  |                                                 |
\*---------------------------------------------------------------------------*/
// * * * * * * * * * * * * * * * * * * * * * * * * * * * * * * * * * * * * * //
FoamFile
{
    version         2;
    format          ascii;
    class           volVectorField;
    location        "98.61";
    object          Udns;
}

dimensions      [ 0 1 -1 0 0 0 0 ];

internalField   nonuniform List<vector> 
15625
(
(0.000513662 -2.2407e-11 -2.2407e-11)
(0.00141763 2.37535e-08 -1.97066e-08)
(0.00224422 2.49491e-07 -1.08979e-07)
(0.00302638 9.92267e-07 -2.84069e-07)
(0.00377759 2.57464e-06 -5.32097e-07)
(0.00450508 5.27388e-06 -8.37774e-07)
(0.00521328 9.30401e-06 -1.18441e-06)
(0.005905 1.48576e-05 -1.57203e-06)
(0.00658204 2.21237e-05 -2.00124e-06)
(0.00724545 3.13332e-05 -2.48569e-06)
(0.00789565 4.27574e-05 -3.03492e-06)
(0.0085326 5.66995e-05 -3.65191e-06)
(0.00915582 7.34819e-05 -4.33942e-06)
(0.00976444 9.33951e-05 -5.08444e-06)
(0.0103573 0.000116674 -5.86618e-06)
(0.0109332 0.000143468 -6.66363e-06)
(0.0114906 0.000173805 -7.44845e-06)
(0.0120281 0.000207608 -8.18842e-06)
(0.0125442 0.000244662 -8.86059e-06)
(0.0130378 0.000284669 -9.44515e-06)
(0.0135078 0.000327224 -9.92321e-06)
(0.0139533 0.00037187 -1.02828e-05)
(0.0143737 0.000418103 -1.05233e-05)
(0.0147686 0.000465409 -1.06458e-05)
(0.015138 0.000513271 -1.06518e-05)
(0.0154818 0.000561196 -1.05489e-05)
(0.0158006 0.000608722 -1.03507e-05)
(0.0160946 0.000655426 -1.00688e-05)
(0.0163647 0.000700938 -9.71237e-06)
(0.0166115 0.000744926 -9.29236e-06)
(0.0168359 0.000787116 -8.82289e-06)
(0.0170389 0.000827269 -8.31611e-06)
(0.0172215 0.000865206 -7.7789e-06)
(0.0173847 0.000900772 -7.2182e-06)
(0.0175295 0.000933858 -6.64325e-06)
(0.0176571 0.000964376 -6.06342e-06)
(0.0177684 0.000992281 -5.48356e-06)
(0.0178646 0.00101755 -4.90662e-06)
(0.0179466 0.00104019 -4.33703e-06)
(0.0180156 0.0010602 -3.78069e-06)
(0.0180724 0.00107764 -3.24202e-06)
(0.018118 0.00109254 -2.72198e-06)
(0.0181534 0.001105 -2.22142e-06)
(0.0181795 0.00111508 -1.74311e-06)
(0.018197 0.00112287 -1.29041e-06)
(0.0182069 0.00112846 -8.64057e-07)
(0.0182098 0.00113198 -4.61989e-07)
(0.0182066 0.00113351 -8.23665e-08)
(0.0181979 0.00113315 2.75464e-07)
(0.0181844 0.00113098 6.12012e-07)
(0.0181667 0.00112708 9.28632e-07)
(0.0181455 0.00112155 1.22728e-06)
(0.0181214 0.00111446 1.50969e-06)
(0.0180947 0.00110587 1.77699e-06)
(0.018066 0.00109584 2.03016e-06)
(0.0180356 0.00108444 2.26921e-06)
(0.018004 0.00107171 2.49364e-06)
(0.0179715 0.00105774 2.70206e-06)
(0.0179383 0.00104261 2.89126e-06)
(0.0179047 0.00102642 3.0581e-06)
(0.017871 0.00100926 3.20303e-06)
(0.0178372 0.00099125 3.32873e-06)
(0.0178037 0.000972488 3.43758e-06)
(0.0177707 0.00095305 3.53104e-06)
(0.0177384 0.000933006 3.61052e-06)
(0.0177071 0.000912423 3.67763e-06)
(0.0176771 0.000891363 3.73418e-06)
(0.0176487 0.000869884 3.78147e-06)
(0.0176222 0.000848035 3.81925e-06)
(0.0175977 0.000825861 3.84704e-06)
(0.0175756 0.000803413 3.86536e-06)
(0.017556 0.000780746 3.8757e-06)
(0.0175392 0.000757916 3.87915e-06)
(0.0175253 0.000734962 3.87495e-06)
(0.0175143 0.000711926 3.86187e-06)
(0.0175064 0.000688863 3.83849e-06)
(0.0175014 0.000665846 3.80318e-06)
(0.0174994 0.000642953 3.75464e-06)
(0.0175002 0.00062026 3.6937e-06)
(0.0175039 0.000597842 3.62198e-06)
(0.0175105 0.000575752 3.54316e-06)
(0.0175198 0.000554004 3.46406e-06)
(0.0175319 0.000532605 3.39096e-06)
(0.0175468 0.000511542 3.32279e-06)
(0.0175645 0.000490786 3.25498e-06)
(0.0175852 0.000470329 3.18522e-06)
(0.0176087 0.000450191 3.11568e-06)
(0.0176352 0.000430394 3.04901e-06)
(0.0176645 0.000410914 2.98666e-06)
(0.0176967 0.000391704 2.92949e-06)
(0.0177315 0.000372728 2.87734e-06)
(0.0177691 0.000353978 2.82781e-06)
(0.0178094 0.000335452 2.77815e-06)
(0.0178523 0.000317169 2.7255e-06)
(0.0178977 0.000299157 2.66694e-06)
(0.0179455 0.00028145 2.60118e-06)
(0.0179954 0.000264095 2.53072e-06)
(0.0180472 0.000247139 2.45811e-06)
(0.0181006 0.000230625 2.38056e-06)
(0.0181557 0.000214592 2.29216e-06)
(0.0182121 0.00019909 2.19207e-06)
(0.0182695 0.000184183 2.08952e-06)
(0.0183275 0.000169924 1.99386e-06)
(0.0183858 0.000156266 1.90558e-06)
(0.018444 0.000143117 1.82107e-06)
(0.0185017 0.000130454 1.73672e-06)
(0.0185588 0.000118354 1.64889e-06)
(0.018615 0.00010689 1.55447e-06)
(0.0186699 9.60758e-05 1.45295e-06)
(0.0187232 8.59136e-05 1.34445e-06)
(0.0187747 7.64948e-05 1.22655e-06)
(0.0188242 6.79865e-05 1.09472e-06)
(0.0188713 6.04836e-05 9.51841e-07)
(0.0189157 5.39087e-05 8.17539e-07)
(0.0189569 4.81569e-05 7.10182e-07)
(0.0189947 4.31087e-05 6.23782e-07)
(0.0190295 3.864e-05 5.43767e-07)
(0.0190608 3.46951e-05 4.74841e-07)
(0.0190884 3.12792e-05 4.39687e-07)
(0.0191119 2.80669e-05 4.51349e-07)
(0.0191314 2.40559e-05 5.01257e-07)
(0.0191468 1.87309e-05 5.77301e-07)
(0.0191581 1.42107e-05 6.64209e-07)
(0.0191656 1.34186e-05 7.45431e-07)
(0.0191691 1.93761e-05 8.03853e-07)
(0.00141763 -1.97066e-08 2.37535e-08)
(0.00405345 -1.01877e-07 -1.01877e-07)
(0.00651142 2.11937e-07 -7.74981e-07)
(0.00884982 1.70546e-06 -2.12072e-06)
(0.0111005 5.21393e-06 -4.08023e-06)
(0.0132825 1.15132e-05 -6.55832e-06)
(0.0154079 2.12938e-05 -9.46089e-06)
(0.0174846 3.52148e-05 -1.278e-05)
(0.0195178 5.39476e-05 -1.65314e-05)
(0.0215104 7.82361e-05 -2.0792e-05)
(0.0234637 0.00010889 -2.56154e-05)
(0.0253772 0.000146755 -3.10111e-05)
(0.0272496 0.000192666 -3.69602e-05)
(0.0290782 0.000247338 -4.33484e-05)
(0.0308595 0.00031132 -5.00069e-05)
(0.0325895 0.000384914 -5.67464e-05)
(0.034264 0.000468119 -6.3341e-05)
(0.0358784 0.000560662 -6.95481e-05)
(0.0374288 0.000661938 -7.51788e-05)
(0.0389111 0.000771134 -8.00696e-05)
(0.0403223 0.000887178 -8.40839e-05)
(0.0416599 0.00100888 -8.71322e-05)
(0.0429219 0.00113492 -8.9198e-05)
(0.0441074 0.00126398 -9.0286e-05)
(0.045216 0.00139469 -9.04198e-05)
(0.0462481 0.00152579 -8.96579e-05)
(0.0472046 0.00165604 -8.80972e-05)
(0.048087 0.00178433 -8.58293e-05)
(0.0488972 0.00190966 -8.29359e-05)
(0.0496377 0.00203113 -7.95087e-05)
(0.0503109 0.002148 -7.56537e-05)
(0.0509199 0.0022596 -7.1466e-05)
(0.0514675 0.00236543 -6.70105e-05)
(0.0519569 0.00246503 -6.23509e-05)
(0.0523913 0.00255808 -5.7558e-05)
(0.0527738 0.00264431 -5.2702e-05)
(0.0531075 0.00272358 -4.78272e-05)
(0.0533958 0.00279577 -4.29668e-05)
(0.0536417 0.00286085 -3.81591e-05)
(0.0538481 0.00291884 -3.34472e-05)
(0.0540183 0.0029698 -2.88656e-05)
(0.0541548 0.00301386 -2.4429e-05)
(0.0542607 0.00305116 -2.01511e-05)
(0.0543385 0.00308191 -1.6053e-05)
(0.0543908 0.00310631 -1.21581e-05)
(0.05442 0.0031246 -8.47358e-06)
(0.0544284 0.00313705 -4.98962e-06)
(0.0544183 0.00314391 -1.69661e-06)
(0.0543917 0.00314544 1.41087e-06)
(0.0543508 0.00314186 4.33797e-06)
(0.0542974 0.00313342 7.09416e-06)
(0.0542333 0.00312035 9.69204e-06)
(0.0541603 0.00310286 1.21438e-05)
(0.0540798 0.00308115 1.44599e-05)
(0.0539932 0.0030554 1.665e-05)
(0.0539018 0.0030258 1.87163e-05)
(0.0538066 0.00299251 2.06568e-05)
(0.0537086 0.00295572 2.24624e-05)
(0.0536086 0.00291566 2.41096e-05)
(0.0535074 0.00287257 2.55751e-05)
(0.0534056 0.00282673 2.68608e-05)
(0.0533038 0.0027784 2.79842e-05)
(0.0532027 0.00272786 2.89619e-05)
(0.0531031 0.00267532 2.98078e-05)
(0.0530056 0.00262099 3.0536e-05)
(0.0529112 0.00256503 3.11617e-05)
(0.0528207 0.00250761 3.17012e-05)
(0.0527349 0.00244885 3.21657e-05)
(0.0526546 0.0023889 3.25494e-05)
(0.0525806 0.00232788 3.28437e-05)
(0.0525136 0.00226597 3.30488e-05)
(0.0524543 0.00220333 3.31729e-05)
(0.0524032 0.00214014 3.32226e-05)
(0.0523609 0.00207655 3.31953e-05)
(0.0523275 0.00201272 3.30864e-05)
(0.0523032 0.0019488 3.28907e-05)
(0.0522878 0.00188498 3.26029e-05)
(0.0522811 0.00182142 3.22193e-05)
(0.0522831 0.00175829 3.17452e-05)
(0.0522937 0.00169576 3.11897e-05)
(0.0523128 0.00163396 3.05764e-05)
(0.0523404 0.00157293 2.99513e-05)
(0.0523762 0.00151274 2.93574e-05)
(0.0524204 0.00145337 2.87893e-05)
(0.0524732 0.0013948 2.82191e-05)
(0.0525347 0.00133703 2.76332e-05)
(0.052605 0.00128011 2.70466e-05)
(0.052684 0.0012241 2.64775e-05)
(0.0527716 0.00116894 2.5941e-05)
(0.0528677 0.00111453 2.54502e-05)
(0.052972 0.00106077 2.50066e-05)
(0.0530845 0.00100764 2.4586e-05)
(0.053205 0.000955101 2.41602e-05)
(0.0533334 0.000903216 2.37036e-05)
(0.0534693 0.000852109 2.31921e-05)
(0.0536125 0.000801908 2.26148e-05)
(0.053762 0.000752737 2.19918e-05)
(0.0539171 0.000704724 2.13442e-05)
(0.0540772 0.000657984 2.06563e-05)
(0.054242 0.000612626 1.98913e-05)
(0.0544109 0.00056877 1.90437e-05)
(0.0545829 0.000526561 1.81709e-05)
(0.0547568 0.000486123 1.73322e-05)
(0.0549315 0.000447403 1.65368e-05)
(0.055106 0.000410264 1.57714e-05)
(0.0552791 0.000374668 1.50153e-05)
(0.0554502 0.000340714 1.42382e-05)
(0.0556185 0.000308513 1.34118e-05)
(0.0557831 0.000278171 1.25246e-05)
(0.0559429 0.000249797 1.15695e-05)
(0.0560972 0.000223587 1.0541e-05)
(0.0562454 0.000199809 9.43522e-06)
(0.0563867 0.000178589 8.28669e-06)
(0.0565197 0.000159738 7.21504e-06)
(0.056643 0.000143006 6.33117e-06)
(0.0567565 0.000128074 5.60428e-06)
(0.0568605 0.000114605 4.95401e-06)
(0.0569545 0.000102442 4.4179e-06)
(0.0570372 9.159e-05 4.14346e-06)
(0.0571078 8.1251e-05 4.21665e-06)
(0.0571662 6.89761e-05 4.58572e-06)
(0.0572124 5.35183e-05 5.17066e-06)
(0.0572466 4.01186e-05 5.8456e-06)
(0.057269 3.59992e-05 6.46845e-06)
(0.0572797 4.86258e-05 6.8923e-06)
(0.00224422 -1.08979e-07 2.49491e-07)
(0.00651142 -7.74981e-07 2.11937e-07)
(0.0105533 -1.25667e-06 -1.25667e-06)
(0.014425 -3.52458e-07 -4.43397e-06)
(0.0181639 3.20615e-06 -9.23027e-06)
(0.0217952 1.06454e-05 -1.54598e-05)
(0.0253359 2.31421e-05 -2.29643e-05)
(0.0287977 4.18688e-05 -3.17249e-05)
(0.0321882 6.80415e-05 -4.17982e-05)
(0.0355116 0.000102951 -5.33167e-05)
(0.0387696 0.000147936 -6.63604e-05)
(0.0419615 0.000204319 -8.09055e-05)
(0.0450843 0.000273331 -9.68169e-05)
(0.0481336 0.000355964 -0.000113772)
(0.0511036 0.000452923 -0.000131328)
(0.0539873 0.000564523 -0.000148971)
(0.0567776 0.000690638 -0.000166138)
(0.0594672 0.000830755 -0.000182249)
(0.0620491 0.00098391 -0.000196832)
(0.0645172 0.00114885 -0.000209482)
(0.0668662 0.00132399 -0.000219887)
(0.069092 0.00150758 -0.000227843)
(0.0711918 0.00169774 -0.000233295)
(0.0731638 0.00189253 -0.000236255)
(0.0750077 0.00209002 -0.000236797)
(0.076724 0.00228835 -0.000235066)
(0.0783145 0.00248577 -0.00023128)
(0.0797816 0.00268064 -0.000225663)
(0.0811287 0.00287149 -0.000218431)
(0.0823596 0.003057 -0.000209817)
(0.0834788 0.00323604 -0.000200072)
(0.0844911 0.00340761 -0.000189426)
(0.0854013 0.00357091 -0.000178057)
(0.0862148 0.00372524 -0.000166137)
(0.0869366 0.00387007 -0.000153834)
(0.0875722 0.00400497 -0.000141317)
(0.0881268 0.00412963 -0.000128704)
(0.0886056 0.00424384 -0.000116097)
(0.0890138 0.00434749 -0.000103596)
(0.0893565 0.00444057 -9.13025e-05)
(0.0896387 0.00452311 -7.93017e-05)
(0.0898651 0.00459524 -6.76449e-05)
(0.0900402 0.00465713 -5.63801e-05)
(0.0901686 0.00470903 -4.55592e-05)
(0.0902544 0.00475123 -3.52351e-05)
(0.0903017 0.00478405 -2.54297e-05)
(0.0903143 0.00480783 -1.61325e-05)
(0.090296 0.00482294 -7.3314e-06)
(0.0902502 0.00482974 9.85888e-07)
(0.0901804 0.00482858 8.83253e-06)
(0.0900899 0.00481984 1.62281e-05)
(0.0899816 0.00480384 2.31971e-05)
(0.0898584 0.00478095 2.97656e-05)
(0.0897227 0.00475146 3.59634e-05)
(0.0895769 0.00471568 4.18192e-05)
(0.0894229 0.0046739 4.73414e-05)
(0.0892627 0.00462638 5.25265e-05)
(0.0890977 0.00457342 5.73564e-05)
(0.0889293 0.00451534 6.1782e-05)
(0.0887587 0.0044525 6.57536e-05)
(0.088587 0.00438528 6.92727e-05)
(0.0884151 0.00431407 7.23717e-05)
(0.0882442 0.00423923 7.50858e-05)
(0.0880756 0.00416111 7.7455e-05)
(0.0879105 0.00408001 7.9521e-05)
(0.0877504 0.00399619 8.13247e-05)
(0.0875967 0.00390986 8.29071e-05)
(0.087451 0.00382121 8.42944e-05)
(0.0873144 0.00373045 8.54665e-05)
(0.0871881 0.00363783 8.63953e-05)
(0.0870735 0.00354358 8.70727e-05)
(0.0869716 0.003448 8.75093e-05)
(0.0868834 0.00335139 8.77146e-05)
(0.0868097 0.00325403 8.769e-05)
(0.0867508 0.0031562 8.7435e-05)
(0.0867071 0.00305818 8.69514e-05)
(0.0866781 0.00296019 8.6244e-05)
(0.0866636 0.00286246 8.53189e-05)
(0.0866636 0.0027652 8.41883e-05)
(0.086678 0.00266862 8.28673e-05)
(0.0867067 0.0025729 8.14025e-05)
(0.0867494 0.00247811 7.98896e-05)
(0.0868059 0.00238435 7.84179e-05)
(0.0868764 0.00229167 7.6979e-05)
(0.0869613 0.00220008 7.55184e-05)
(0.0870608 0.00210962 7.40113e-05)
(0.0871749 0.0020204 7.24921e-05)
(0.0873036 0.00193247 7.1003e-05)
(0.0874466 0.0018458 6.95879e-05)
(0.0876037 0.00176025 6.82922e-05)
(0.0877747 0.00167571 6.71255e-05)
(0.0879594 0.00159212 6.60166e-05)
(0.0881575 0.00150943 6.48828e-05)
(0.0883687 0.00142775 6.36555e-05)
(0.0885925 0.00134733 6.22741e-05)
(0.0888282 0.00126836 6.07114e-05)
(0.0890746 0.00119105 5.90185e-05)
(0.0893303 0.00111558 5.72502e-05)
(0.0895945 0.00104213 5.53794e-05)
(0.0898663 0.000970864 5.33323e-05)
(0.090145 0.000901963 5.10972e-05)
(0.0904287 0.00083562 4.87861e-05)
(0.0907159 0.000772008 4.65168e-05)
(0.0910046 0.000711127 4.43217e-05)
(0.0912928 0.000652899 4.2195e-05)
(0.0915789 0.000597298 4.01029e-05)
(0.0918614 0.000544372 3.79736e-05)
(0.0921393 0.000494206 3.57364e-05)
(0.092411 0.000446992 3.33473e-05)
(0.0926748 0.000402961 3.07717e-05)
(0.0929297 0.000362335 2.80234e-05)
(0.0931745 0.000325329 2.51573e-05)
(0.0934079 0.000291998 2.2283e-05)
(0.0936276 0.000262038 1.9627e-05)
(0.0938315 0.000235072 1.7395e-05)
(0.0940193 0.000210634 1.55365e-05)
(0.0941912 0.000188226 1.39119e-05)
(0.0943464 0.000167606 1.2612e-05)
(0.0944834 0.000148764 1.19416e-05)
(0.0946006 0.000130629 1.20792e-05)
(0.0946979 0.000109958 1.29204e-05)
(0.094775 8.51186e-05 1.4293e-05)
(0.0948322 6.31293e-05 1.58863e-05)
(0.0948697 5.36539e-05 1.73424e-05)
(0.0948878 6.66813e-05 1.8291e-05)
(0.00302638 -2.84069e-07 9.92267e-07)
(0.00884982 -2.12072e-06 1.70546e-06)
(0.014425 -4.43397e-06 -3.52458e-07)
(0.0197985 -5.57936e-06 -5.57936e-06)
(0.0250059 -3.87757e-06 -1.38547e-05)
(0.0300738 2.32542e-06 -2.49255e-05)
(0.0350213 1.46782e-05 -3.8606e-05)
(0.0398619 3.48708e-05 -5.48926e-05)
(0.0446043 6.46693e-05 -7.38935e-05)
(0.0492533 0.000105909 -9.57711e-05)
(0.0538102 0.000160428 -0.000120575)
(0.0582735 0.000229972 -0.000148161)
(0.0626386 0.000316074 -0.000178159)
(0.0668989 0.000419898 -0.000209915)
(0.071046 0.0005422 -0.000242585)
(0.0750704 0.000683209 -0.000275208)
(0.0789621 0.000842616 -0.000306779)
(0.0827109 0.00101964 -0.0003363)
(0.0863077 0.00121298 -0.00036295)
(0.089744 0.00142102 -0.000386033)
(0.093013 0.00164178 -0.000405046)
(0.0961091 0.00187312 -0.000419658)
(0.0990289 0.00211273 -0.000429776)
(0.10177 0.00235831 -0.000435425)
(0.104333 0.00260753 -0.000436753)
(0.106718 0.00285817 -0.000434012)
(0.108927 0.0031081 -0.00042757)
(0.110965 0.00335536 -0.000417807)
(0.112837 0.00359815 -0.000405117)
(0.114547 0.00383486 -0.000389906)
(0.116101 0.00406408 -0.000372603)
(0.117508 0.00428455 -0.000353606)
(0.118772 0.00449525 -0.000333238)
(0.119902 0.00469525 -0.000311813)
(0.120905 0.00488386 -0.000289623)
(0.121788 0.00506044 -0.000266954)
(0.122558 0.00522457 -0.000244029)
(0.123223 0.00537588 -0.000221044)
(0.12379 0.00551417 -0.000198186)
(0.124265 0.00563934 -0.000175629)
(0.124657 0.00575136 -0.00015353)
(0.12497 0.00585032 -0.000131998)
(0.125212 0.00593637 -0.000111135)
(0.125389 0.00600976 -9.10361e-05)
(0.125506 0.00607079 -7.1792e-05)
(0.125569 0.00611981 -5.34488e-05)
(0.125584 0.0061572 -3.60062e-05)
(0.125555 0.00618338 -1.94588e-05)
(0.125488 0.00619877 -3.79236e-06)
(0.125387 0.00620381 1.10104e-05)
(0.125257 0.00619895 2.49776e-05)
(0.125103 0.00618462 3.81452e-05)
(0.124927 0.00616126 5.05551e-05)
(0.124734 0.00612926 6.22602e-05)
(0.124526 0.00608903 7.3313e-05)
(0.124307 0.00604093 8.37303e-05)
(0.124079 0.00598535 9.35079e-05)
(0.123844 0.00592266 0.000102622)
(0.123604 0.00585327 0.000111005)
(0.123361 0.0057776 0.000118589)
(0.123115 0.00569609 0.000125376)
(0.122869 0.00560918 0.000131404)
(0.122624 0.00551733 0.000136728)
(0.122382 0.00542091 0.000141422)
(0.122144 0.00532033 0.000145564)
(0.121913 0.00521589 0.000149229)
(0.121691 0.00510785 0.000152485)
(0.12148 0.00499648 0.000155373)
(0.121282 0.00488205 0.000157855)
(0.121097 0.00476485 0.000159875)
(0.120929 0.00464523 0.000161408)
(0.120778 0.00452358 0.000162452)
(0.120647 0.00440032 0.000163012)
(0.120535 0.00427585 0.000163102)
(0.120443 0.00415056 0.000162741)
(0.120373 0.00402483 0.000161955)
(0.120323 0.00389893 0.000160771)
(0.120294 0.00377315 0.000159222)
(0.120284 0.00364772 0.000157332)
(0.120295 0.00352287 0.000155129)
(0.120326 0.00339878 0.000152681)
(0.120376 0.00327556 0.000150127)
(0.120446 0.00315333 0.000147592)
(0.120535 0.00303219 0.000145066)
(0.120645 0.00291221 0.000142469)
(0.120775 0.00279349 0.000139768)
(0.120925 0.00267618 0.000137021)
(0.121096 0.00256038 0.000134301)
(0.121287 0.00244608 0.000131693)
(0.121498 0.00233315 0.000129294)
(0.121728 0.0022215 0.000127126)
(0.121978 0.00211107 0.00012505)
(0.122246 0.00200183 0.0001229)
(0.122533 0.00189398 0.000120556)
(0.122838 0.0017878 0.000117918)
(0.123158 0.0016836 0.000114946)
(0.123494 0.00158159 0.000111723)
(0.123843 0.00148202 0.000108342)
(0.124204 0.00138511 0.00010477)
(0.124575 0.00129108 0.000100903)
(0.124955 0.00120017 9.67232e-05)
(0.125343 0.00111262 9.2386e-05)
(0.125736 0.00102863 8.80576e-05)
(0.126131 0.000948305 8.38074e-05)
(0.126526 0.000871636 7.96612e-05)
(0.126918 0.000798633 7.55864e-05)
(0.127305 0.000729295 7.14681e-05)
(0.127685 0.000663663 6.71882e-05)
(0.128057 0.000601973 6.26545e-05)
(0.128418 0.000544512 5.77881e-05)
(0.128767 0.000491474 5.26474e-05)
(0.129102 0.000442966 4.74073e-05)
(0.129422 0.000398935 4.22899e-05)
(0.129724 0.000358971 3.7607e-05)
(0.130003 0.000322587 3.36348e-05)
(0.130261 0.00028919 3.03113e-05)
(0.130497 0.000258152 2.74584e-05)
(0.130711 0.000229147 2.52241e-05)
(0.130899 0.000202124 2.40604e-05)
(0.131061 0.000175902 2.42293e-05)
(0.131197 0.000146986 2.55711e-05)
(0.131304 0.000113635 2.78133e-05)
(0.131385 8.35145e-05 3.04281e-05)
(0.131437 6.71651e-05 3.28015e-05)
(0.131463 7.54821e-05 3.42985e-05)
(0.00377759 -5.32097e-07 2.57464e-06)
(0.0111005 -4.08023e-06 5.21393e-06)
(0.0181639 -9.23027e-06 3.20615e-06)
(0.0250059 -1.38547e-05 -3.87757e-06)
(0.0316579 -1.58557e-05 -1.58557e-05)
(0.0381444 -1.31634e-05 -3.24334e-05)
(0.0444843 -3.67444e-06 -5.34357e-05)
(0.0506907 1.48047e-05 -7.89129e-05)
(0.0567723 4.45701e-05 -0.000109024)
(0.0627332 8.79723e-05 -0.000143925)
(0.0685737 0.000147302 -0.000183555)
(0.0742906 0.000224662 -0.000227537)
(0.0798775 0.000321819 -0.000275141)
(0.0853255 0.000440029 -0.000325247)
(0.0906235 0.000580028 -0.000376489)
(0.0957595 0.000741905 -0.000427361)
(0.100721 0.000925139 -0.000476344)
(0.105496 0.00112869 -0.000521968)
(0.110072 0.00135097 -0.000563043)
(0.114441 0.00159005 -0.000598572)
(0.118593 0.0018437 -0.000627866)
(0.122523 0.00210948 -0.000650479)
(0.126227 0.00238487 -0.000666297)
(0.129703 0.00266731 -0.000675378)
(0.132951 0.00295429 -0.000677957)
(0.135972 0.00324337 -0.000674411)
(0.138771 0.00353224 -0.000665265)
(0.141353 0.00381873 -0.000651075)
(0.143723 0.00410087 -0.000632423)
(0.145888 0.00437685 -0.00060991)
(0.147857 0.00464509 -0.000584151)
(0.149638 0.00490415 -0.000555729)
(0.15124 0.00515284 -0.000525125)
(0.152671 0.00539004 -0.000492811)
(0.153942 0.00561489 -0.000459214)
(0.15506 0.0058266 -0.000424753)
(0.156036 0.00602458 -0.000389768)
(0.156879 0.00620834 -0.000354571)
(0.157597 0.00637752 -0.000319449)
(0.158198 0.00653193 -0.00028467)
(0.158693 0.00667141 -0.000250478)
(0.159089 0.00679601 -0.000217056)
(0.159394 0.00690581 -0.00018458)
(0.159616 0.00700101 -0.000153198)
(0.159761 0.00708188 -0.000123049)
(0.159838 0.00714874 -9.42135e-05)
(0.159852 0.00720199 -6.67101e-05)
(0.159811 0.00724202 -4.05497e-05)
(0.15972 0.00726929 -1.57271e-05)
(0.159586 0.00728427 7.76831e-06)
(0.159414 0.00728744 2.99696e-05)
(0.15921 0.00727928 5.09256e-05)
(0.158979 0.0072603 7.06927e-05)
(0.158725 0.00723094 8.93418e-05)
(0.158453 0.00719167 0.000106944)
(0.158165 0.00714296 0.000123523)
(0.157866 0.00708527 0.000139078)
(0.157558 0.00701906 0.000153587)
(0.157242 0.00694479 0.00016698)
(0.156922 0.00686291 0.000179189)
(0.156597 0.00677388 0.000190216)
(0.156272 0.00667816 0.000200107)
(0.155946 0.00657622 0.000208926)
(0.155624 0.00646847 0.000216782)
(0.155307 0.00635533 0.000223791)
(0.154999 0.00623718 0.000230057)
(0.154701 0.00611433 0.000235676)
(0.154417 0.00598709 0.000240708)
(0.154148 0.0058558 0.000245091)
(0.153898 0.00572077 0.00024874)
(0.153667 0.00558244 0.000251602)
(0.153458 0.0054413 0.000253649)
(0.153273 0.00529785 0.000254867)
(0.153113 0.0051526 0.000255298)
(0.152979 0.00500603 0.000254996)
(0.152871 0.00485859 0.00025402)
(0.152789 0.00471063 0.000252433)
(0.152733 0.00456248 0.000250299)
(0.152703 0.00441441 0.000247672)
(0.152698 0.00426665 0.000244605)
(0.152719 0.00411939 0.000241193)
(0.152766 0.00397275 0.000237601)
(0.152837 0.00382687 0.000233979)
(0.152933 0.00368187 0.000230306)
(0.153055 0.00353788 0.000226481)
(0.153204 0.00339507 0.000222464)
(0.153379 0.0032536 0.000218337)
(0.153579 0.00311366 0.000214202)
(0.153806 0.00297526 0.000210195)
(0.154058 0.00283836 0.000206472)
(0.154336 0.00270289 0.000203072)
(0.154638 0.0025689 0.00019977)
(0.154965 0.00243641 0.000196305)
(0.155316 0.00230566 0.000192504)
(0.155688 0.00217702 0.000188248)
(0.156082 0.00205081 0.000183485)
(0.156494 0.00192729 0.000178331)
(0.156924 0.0018067 0.00017291)
(0.157368 0.00168932 0.000167184)
(0.157826 0.0015754 0.000161028)
(0.158295 0.00146524 0.000154418)
(0.158773 0.00135912 0.000147537)
(0.159259 0.00125729 0.000140583)
(0.159748 0.00115993 0.000133676)
(0.160237 0.00106714 0.000126893)
(0.160722 0.000978977 0.00012022)
(0.161201 0.000895403 0.000113508)
(0.161672 0.000816429 0.000106598)
(0.162132 0.000742279 9.93467e-05)
(0.16258 0.000673238 9.16259e-05)
(0.163012 0.000609429 8.35571e-05)
(0.163427 0.000550848 7.54729e-05)
(0.163824 0.00049733 6.77281e-05)
(0.164198 0.000448379 6.07e-05)
(0.164546 0.00040342 5.47142e-05)
(0.164868 0.000361752 4.97074e-05)
(0.165161 0.000322625 4.54837e-05)
(0.165427 0.000285618 4.22378e-05)
(0.165662 0.000250604 4.05285e-05)
(0.165866 0.000216405 4.06729e-05)
(0.166038 0.00017969 4.24524e-05)
(0.166175 0.000138827 4.54956e-05)
(0.166277 0.000101244 4.90618e-05)
(0.166345 7.71412e-05 5.22867e-05)
(0.166379 7.70588e-05 5.42767e-05)
(0.00450508 -8.37774e-07 5.27388e-06)
(0.0132825 -6.55832e-06 1.15132e-05)
(0.0217952 -1.54598e-05 1.06454e-05)
(0.0300738 -2.49255e-05 2.32542e-06)
(0.0381444 -3.24334e-05 -1.31634e-05)
(0.046028 -3.54965e-05 -3.54965e-05)
(0.0537407 -3.1564e-05 -6.45462e-05)
(0.0612939 -1.79603e-05 -0.000100444)
(0.0686945 8.11058e-06 -0.000143395)
(0.0759449 4.94725e-05 -0.0001935)
(0.0830434 0.000108818 -0.000250495)
(0.0899847 0.00018855 -0.000313649)
(0.0967601 0.000290603 -0.000381737)
(0.103358 0.000416273 -0.00045305)
(0.109765 0.000566231 -0.000525595)
(0.115968 0.00074041 -0.00059724)
(0.12195 0.000938086 -0.000665906)
(0.127699 0.00115799 -0.000729632)
(0.133202 0.0013983 -0.000786862)
(0.138447 0.00165691 -0.000836318)
(0.143428 0.00193139 -0.00087715)
(0.148136 0.00221918 -0.000908825)
(0.15257 0.00251766 -0.000931233)
(0.156727 0.00282417 -0.000944478)
(0.160608 0.00313612 -0.000948902)
(0.164218 0.00345103 -0.000945012)
(0.16756 0.00376651 -0.000933495)
(0.170641 0.00408033 -0.000915083)
(0.17347 0.00439044 -0.000890546)
(0.176054 0.00469494 -0.000860676)
(0.178404 0.00499214 -0.000826274)
(0.180529 0.00528048 -0.000788102)
(0.182441 0.00555864 -0.000746806)
(0.184149 0.00582536 -0.00070301)
(0.185666 0.00607965 -0.000657282)
(0.187001 0.00632054 -0.000610175)
(0.188166 0.0065473 -0.000562155)
(0.189172 0.00675927 -0.000513654)
(0.190029 0.00695596 -0.000465077)
(0.190748 0.00713703 -0.000416799)
(0.191338 0.00730221 -0.000369168)
(0.19181 0.00745144 -0.000322457)
(0.192173 0.00758468 -0.000276927)
(0.192435 0.00770209 -0.000232793)
(0.192605 0.00780384 -0.00019025)
(0.192692 0.00789021 -0.000149424)
(0.192704 0.00796154 -0.00011036)
(0.192648 0.00801818 -7.30932e-05)
(0.192532 0.00806056 -3.76399e-05)
(0.192363 0.00808914 -4.0072e-06)
(0.192147 0.00810439 2.78364e-05)
(0.191893 0.00810679 5.79503e-05)
(0.191605 0.00809686 8.63993e-05)
(0.191288 0.00807509 0.000113257)
(0.190949 0.00804201 0.000138598)
(0.190591 0.00799814 0.000162452)
(0.190217 0.00794403 0.000184827)
(0.189833 0.0078802 0.000205715)
(0.189438 0.00780714 0.000225066)
(0.189036 0.0077253 0.000242833)
(0.188629 0.00763512 0.000259025)
(0.188219 0.00753705 0.000273692)
(0.187809 0.00743153 0.000286904)
(0.1874 0.00731898 0.000298793)
(0.186998 0.00719985 0.0003095)
(0.186605 0.00707453 0.000319156)
(0.186224 0.00694337 0.000327889)
(0.185859 0.00680674 0.000335773)
(0.185512 0.00666499 0.000342721)
(0.185186 0.0065185 0.000348617)
(0.184883 0.00636774 0.000353371)
(0.184606 0.00621328 0.000356917)
(0.184357 0.00605571 0.000359219)
(0.184136 0.00589558 0.000360347)
(0.183947 0.00573349 0.000360402)
(0.183789 0.00556992 0.000359486)
(0.183663 0.0054053 0.000357701)
(0.183567 0.00524003 0.000355151)
(0.183502 0.0050744 0.000351934)
(0.183469 0.00490866 0.000348144)
(0.183466 0.004743 0.000343912)
(0.183493 0.00457757 0.000339416)
(0.183551 0.00441249 0.00033482)
(0.183639 0.0042479 0.00033009)
(0.183759 0.00408399 0.000325101)
(0.183911 0.00392092 0.000319804)
(0.184094 0.00375894 0.000314297)
(0.184308 0.00359825 0.000308708)
(0.184555 0.00343898 0.000303215)
(0.184833 0.00328117 0.000298028)
(0.185143 0.00312489 0.000293202)
(0.185483 0.00297029 0.000288425)
(0.185853 0.00281752 0.000283347)
(0.186251 0.00266689 0.000277757)
(0.186676 0.00251877 0.000271535)
(0.187126 0.00237351 0.000264637)
(0.187599 0.00223137 0.000257199)
(0.188093 0.00209262 0.000249365)
(0.188604 0.00195751 0.000241098)
(0.189131 0.00182636 0.000232255)
(0.189672 0.00169947 0.000222805)
(0.190223 0.00157715 0.000212939)
(0.190784 0.00145972 0.000202874)
(0.19135 0.00134743 0.000192779)
(0.191916 0.00124049 0.000182799)
(0.192478 0.00113902 0.000172954)
(0.193033 0.00104299 0.000163082)
(0.19358 0.000952396 0.000153003)
(0.194114 0.000867411 0.000142527)
(0.194633 0.000788261 0.00013148)
(0.195134 0.000714992 0.000120056)
(0.195617 0.000647503 0.00010876)
(0.196078 0.000585538 9.80845e-05)
(0.196513 0.000528524 8.84638e-05)
(0.196919 0.000475807 8.02637e-05)
(0.197294 0.000426589 7.34283e-05)
(0.197638 0.000380021 6.77583e-05)
(0.197949 0.000335584 6.34746e-05)
(0.198225 0.000293054 6.11889e-05)
(0.198466 0.000251337 6.12332e-05)
(0.198669 0.000207542 6.33228e-05)
(0.198833 0.000160279 6.69892e-05)
(0.198957 0.000116099 7.13111e-05)
(0.199039 8.39792e-05 7.52148e-05)
(0.199081 7.31994e-05 7.75903e-05)
(0.00521328 -1.18441e-06 9.30401e-06)
(0.0154079 -9.46089e-06 2.12938e-05)
(0.0253359 -2.29643e-05 2.31421e-05)
(0.0350213 -3.8606e-05 1.46782e-05)
(0.0444843 -5.34357e-05 -3.67444e-06)
(0.0537407 -6.45462e-05 -3.1564e-05)
(0.0628026 -6.89408e-05 -6.89408e-05)
(0.0716779 -6.34721e-05 -0.000116032)
(0.0803703 -4.48679e-05 -0.000173074)
(0.0888794 -9.87013e-06 -0.000240047)
(0.0972007 4.45664e-05 -0.000316384)
(0.105326 0.000121091 -0.000400881)
(0.113245 0.000221762 -0.000491687)
(0.120942 0.000347885 -0.000586394)
(0.128403 0.000500055 -0.000682292)
(0.135611 0.00067806 -0.000776571)
(0.142551 0.00088101 -0.000866568)
(0.149207 0.00110747 -0.000949839)
(0.155566 0.00135548 -0.00102448)
(0.161617 0.00162282 -0.00108897)
(0.167353 0.00190701 -0.00114232)
(0.172769 0.00220545 -0.00118396)
(0.177861 0.00251552 -0.00121381)
(0.18263 0.0028346 -0.00123202)
(0.187079 0.00316014 -0.00123907)
(0.191213 0.00348969 -0.00123558)
(0.195037 0.00382091 -0.00122241)
(0.198562 0.00415159 -0.00120045)
(0.201796 0.00447968 -0.00117064)
(0.20475 0.00480324 -0.00113395)
(0.207435 0.00512055 -0.00109136)
(0.209863 0.00542997 -0.00104379)
(0.212048 0.0057301 -0.000992033)
(0.214 0.00601956 -0.000936873)
(0.215733 0.00629721 -0.000879002)
(0.21726 0.00656199 -0.000819104)
(0.218592 0.00681298 -0.000757771)
(0.219743 0.00704938 -0.000695558)
(0.220723 0.00727054 -0.000632993)
(0.221545 0.00747596 -0.000570575)
(0.22222 0.00766525 -0.000508766)
(0.222759 0.00783819 -0.000447941)
(0.223173 0.00799466 -0.000388459)
(0.223471 0.00813467 -0.000330609)
(0.223663 0.00825832 -0.000274655)
(0.223758 0.00836577 -0.000220773)
(0.223765 0.00845727 -0.000169043)
(0.223694 0.00853311 -0.000119538)
(0.223552 0.00859365 -7.22993e-05)
(0.223348 0.00863927 -2.73594e-05)
(0.22309 0.00867039 1.53013e-05)
(0.222785 0.00868746 5.57398e-05)
(0.222441 0.00869096 9.40143e-05)
(0.222062 0.00868143 0.000130182)
(0.221656 0.00865942 0.000164298)
(0.221227 0.00862551 0.000196402)
(0.220779 0.0085803 0.000226519)
(0.220317 0.00852437 0.000254667)
(0.219843 0.00845816 0.000280843)
(0.219359 0.00838214 0.000305042)
(0.218867 0.00829671 0.00032729)
(0.21837 0.00820226 0.00034763)
(0.217871 0.00809918 0.000366135)
(0.217374 0.0079879 0.000382946)
(0.216882 0.00786886 0.000398215)
(0.2164 0.00774246 0.000412097)
(0.215931 0.00760907 0.000424746)
(0.215478 0.00746906 0.000436255)
(0.215046 0.00732285 0.000446506)
(0.214637 0.00717081 0.000455344)
(0.214254 0.00701349 0.000462639)
(0.2139 0.00685147 0.000468286)
(0.213576 0.00668539 0.000472218)
(0.213286 0.00651588 0.000474536)
(0.213031 0.00634359 0.000475386)
(0.212811 0.00616906 0.000474915)
(0.212627 0.00599278 0.000473274)
(0.212479 0.0058152 0.000470615)
(0.212366 0.00563665 0.000467086)
(0.212289 0.00545741 0.000462837)