/*--------------------------------*- C++ -*----------------------------------*\
| =========                 |                                                 |
| \\      /  F ield         | OpenFOAM: The Open Source CFD Toolbox           |
|  \\    /   O peration     | Version:  4.x                                   |
|   \\  /    A nd           | Web:      www.OpenFOAM.org                      |
|    \\/     M anipulation  |                                                 |
\*---------------------------------------------------------------------------*/
FoamFile
{
    version     2.0;
    format      ascii;
    class       volVectorField;
    location    "98.61";
    object      U;
}
// * * * * * * * * * * * * * * * * * * * * * * * * * * * * * * * * * * * * * //

dimensions      [0 1 -1 0 0 0 0];

internalField   nonuniform List<vector> 
15625
(
(0.0010927 -1.14796e-15 -1.14818e-15)
(0.00278884 -1.76109e-15 -5.95436e-16)
(0.00434351 -8.71725e-16 -1.84855e-16)
(0.0058131 -4.44905e-16 -7.53596e-17)
(0.00721299 -2.75475e-16 -3.83787e-17)
(0.00854352 -1.8568e-16 -1.8781e-17)
(0.00980125 -1.32014e-16 -9.1876e-18)
(0.0109841 -9.92663e-17 -4.90559e-18)
(0.0120926 -7.81792e-17 -2.92987e-18)
(0.0131299 -6.36057e-17 -1.95128e-18)
(0.0141005 -5.27992e-17 -1.44788e-18)
(0.0150097 -4.44719e-17 -1.07324e-18)
(0.0158631 -3.78508e-17 -8.20983e-19)
(0.0166658 -3.24253e-17 -6.96875e-19)
(0.0174227 -2.79696e-17 -4.36318e-19)
(0.0181383 -2.41978e-17 -5.3685e-19)
(0.0188164 -2.11204e-17 -3.43304e-19)
(0.0194606 -1.86195e-17 -4.33635e-19)
(0.0200737 -1.63766e-17 -2.97683e-19)
(0.0206586 -1.44959e-17 -3.36277e-19)
(0.0212175 -1.28827e-17 -2.47728e-19)
(0.0217526 -1.14502e-17 -1.33023e-19)
(0.0222657 -1.01954e-17 -1.13e-19)
(0.0227584 -8.94255e-18 -9.54029e-20)
(0.0232321 -7.78815e-18 -1.41719e-19)
(0.0236882 -6.84716e-18 -1.70937e-19)
(0.0241279 -6.02213e-18 -1.05224e-19)
(0.0245522 -5.30564e-18 -8.44393e-20)
(0.0249621 -4.54265e-18 -4.67175e-20)
(0.0253584 -3.84632e-18 7.67925e-20)
(0.0257419 -3.2994e-18 5.66315e-20)
(0.0261134 -2.75863e-18 1.44439e-19)
(0.0264735 -2.25548e-18 1.14743e-19)
(0.0268227 -1.79569e-18 1.04738e-19)
(0.0271618 -1.23721e-18 -4.49568e-20)
(0.0274911 -6.19397e-19 -1.92178e-20)
(0.0278112 -1.42357e-19 -8.42188e-21)
(0.0281224 3.96003e-19 -8.92572e-20)
(0.0284252 9.174e-19 4.08499e-20)
(0.02872 1.18642e-18 1.66686e-20)
(0.0290071 1.3673e-18 3.52831e-20)
(0.0292869 1.67971e-18 9.51565e-20)
(0.0295596 1.95963e-18 1.71298e-19)
(0.0298255 2.00487e-18 1.93317e-19)
(0.0300849 2.16358e-18 5.8336e-20)
(0.0303381 2.52858e-18 1.38005e-19)
(0.0305852 2.74482e-18 1.16373e-19)
(0.0308265 2.81188e-18 2.91581e-20)
(0.0310622 2.79107e-18 1.51759e-19)
(0.0312925 2.94206e-18 -7.40548e-20)
(0.0315176 3.30243e-18 -1.66776e-19)
(0.0317376 3.45455e-18 -1.80812e-20)
(0.0319528 3.43931e-18 -7.94521e-20)
(0.0321632 3.47129e-18 2.65529e-20)
(0.0323689 3.59348e-18 -1.26737e-19)
(0.0325703 3.83832e-18 -1.17703e-19)
(0.0327673 4.18066e-18 -1.35753e-19)
(0.03296 4.46212e-18 -1.04441e-19)
(0.0331487 4.57186e-18 -4.71201e-20)
(0.0333334 4.52e-18 2.60453e-19)
(0.0335142 4.3004e-18 1.64917e-19)
(0.0336912 4.22335e-18 1.08824e-19)
(0.0338645 4.41672e-18 1.49195e-19)
(0.0340342 4.54105e-18 1.54646e-19)
(0.0342003 4.42159e-18 1.44507e-19)
(0.034363 4.25095e-18 -1.5923e-20)
(0.0345223 4.00146e-18 2.05774e-19)
(0.0346783 3.96943e-18 1.59892e-19)
(0.0348311 4.23157e-18 1.87789e-19)
(0.0349807 4.44184e-18 1.67754e-19)
(0.0351271 4.51241e-18 3.85693e-19)
(0.0352705 4.35678e-18 4.68447e-19)
(0.0354109 4.38227e-18 1.15755e-19)
(0.0355483 4.24046e-18 2.62799e-19)
(0.0356827 3.86863e-18 1.7097e-19)
(0.0358143 3.92256e-18 -8.30003e-20)
(0.0359431 4.2774e-18 1.5319e-19)
(0.036069 4.57218e-18 1.61219e-19)
(0.0361922 4.46927e-18 1.95981e-19)
(0.0363127 3.91789e-18 2.51146e-19)
(0.0364304 3.51301e-18 1.32302e-19)
(0.0365455 3.39732e-18 1.02572e-19)
(0.036658 3.51883e-18 6.63352e-20)
(0.0367678 3.87776e-18 -9.79181e-20)
(0.0368751 4.02814e-18 -1.03788e-19)
(0.0369798 3.97842e-18 -7.54091e-20)
(0.0370819 4.31379e-18 -4.01723e-19)
(0.0371815 4.80908e-18 -3.44464e-19)
(0.0372785 4.90962e-18 -7.80114e-20)
(0.0373731 4.7644e-18 1.05828e-19)
(0.0374652 4.40931e-18 2.57731e-19)
(0.0375548 4.06148e-18 2.13359e-19)
(0.0376419 3.91109e-18 2.20373e-19)
(0.0377265 3.43447e-18 3.52402e-19)
(0.0378087 3.05986e-18 3.5463e-19)
(0.0378885 3.55055e-18 2.05642e-19)
(0.0379657 4.12813e-18 2.62265e-19)
(0.0380406 3.87014e-18 4.93201e-19)
(0.038113 3.45333e-18 3.22413e-19)
(0.0381829 3.22978e-18 5.19358e-19)
(0.0382503 3.02112e-18 5.4255e-19)
(0.0383153 3.02838e-18 7.35062e-20)
(0.0383778 3.07263e-18 2.59695e-19)
(0.0384379 2.79696e-18 3.77814e-19)
(0.0384954 2.34658e-18 1.99523e-19)
(0.0385505 2.18667e-18 1.68876e-19)
(0.038603 1.77943e-18 2.60794e-19)
(0.038653 1.46317e-18 1.78342e-19)
(0.0387005 1.41693e-18 3.40205e-19)
(0.0387454 1.28488e-18 2.43178e-19)
(0.0387877 7.96498e-19 1.77075e-19)
(0.0388274 5.10182e-19 2.02059e-19)
(0.0388645 9.70438e-19 1.60503e-19)
(0.0388989 8.41374e-19 3.94144e-19)
(0.0389307 4.29925e-19 8.90281e-20)
(0.0389597 -6.15903e-20 8.93587e-20)
(0.038986 -2.66037e-19 2.48951e-19)
(0.0390095 5.3848e-19 4.31791e-19)
(0.0390303 9.85971e-19 5.4707e-19)
(0.0390482 9.01692e-19 4.61054e-19)
(0.0390632 8.74255e-19 3.42612e-19)
(0.0390753 7.87338e-19 2.21008e-19)
(0.0390845 3.48269e-19 3.36146e-19)
(0.0390906 3.68516e-19 1.81356e-19)
(0.0390937 3.45115e-19 1.74199e-19)
(0.00278884 -5.94794e-16 -1.76157e-15)
(0.00742624 -1.29126e-15 -1.29028e-15)
(0.0117469 -9.90997e-16 -6.7826e-16)
(0.0158176 -7.15291e-16 -3.79209e-16)
(0.0196563 -5.3858e-16 -2.1725e-16)
(0.0232613 -4.15339e-16 -1.26801e-16)
(0.0266298 -3.28041e-16 -7.68958e-17)
(0.0297653 -2.66533e-16 -4.91608e-17)
(0.032678 -2.22378e-16 -3.32417e-17)
(0.0353832 -1.89602e-16 -2.38605e-17)
(0.0378986 -1.64293e-16 -1.77853e-17)
(0.0402423 -1.44519e-16 -1.38935e-17)
(0.0424316 -1.28705e-16 -1.10444e-17)
(0.0444827 -1.15481e-16 -9.09581e-18)
(0.0464097 -1.04457e-16 -7.50165e-18)
(0.0482253 -9.5185e-17 -6.01998e-18)
(0.0499406 -8.77679e-17 -4.69709e-18)
(0.0515652 -8.17606e-17 -4.24083e-18)
(0.0531075 -7.64146e-17 -4.09755e-18)
(0.054575 -7.1684e-17 -3.36588e-18)
(0.055974 -6.74791e-17 -2.82926e-18)
(0.0573102 -6.38124e-17 -2.39463e-18)
(0.0585886 -6.04821e-17 -1.98996e-18)
(0.0598137 -5.76233e-17 -1.64684e-18)
(0.0609894 -5.52196e-17 -1.66358e-18)
(0.0621192 -5.30097e-17 -1.51186e-18)
(0.0632062 -5.10724e-17 -1.4543e-18)
(0.0642533 -4.94642e-17 -1.2419e-18)
(0.0652631 -4.74886e-17 -8.88728e-19)
(0.0662378 -4.5577e-17 -6.9772e-19)
(0.0671796 -4.44147e-17 -5.82618e-19)
(0.0680903 -4.32755e-17 -6.88257e-19)
(0.0689718 -4.22281e-17 -9.12664e-19)
(0.0698255 -4.13148e-17 -6.64874e-19)
(0.0706531 -4.02827e-17 -6.12201e-19)
(0.0714557 -3.91501e-17 -8.68797e-19)
(0.0722348 -3.82075e-17 -7.67772e-19)
(0.0729913 -3.67494e-17 -8.36417e-19)
(0.0737265 -3.52764e-17 -7.89108e-19)
(0.0744413 -3.42983e-17 -9.65295e-19)
(0.0751365 -3.33192e-17 -6.98304e-19)
(0.0758131 -3.22763e-17 -6.38912e-19)
(0.0764719 -3.12087e-17 -5.57743e-19)
(0.0771135 -3.07675e-17 -4.1028e-19)
(0.0777388 -3.00896e-17 -4.04357e-19)
(0.0783482 -2.86875e-17 -5.2111e-19)
(0.0789425 -2.74304e-17 -2.76461e-19)
(0.0795223 -2.6564e-17 -3.78987e-20)
(0.0800879 -2.58154e-17 -2.3493e-19)
(0.0806401 -2.49131e-17 -4.74348e-19)
(0.0811791 -2.38764e-17 -4.27025e-19)
(0.0817055 -2.31656e-17 -2.92906e-19)
(0.0822197 -2.28271e-17 -7.45561e-19)
(0.0827221 -2.24248e-17 -3.09269e-19)
(0.0832131 -2.1875e-17 -9.78399e-20)
(0.083693 -2.09166e-17 -4.48659e-19)
(0.0841621 -1.95773e-17 -5.73048e-19)
(0.0846207 -1.85631e-17 -3.47575e-19)
(0.0850692 -1.78639e-17 -4.03951e-19)
(0.0855079 -1.73321e-17 -1.31046e-19)
(0.0859369 -1.73721e-17 2.14189e-20)
(0.0863567 -1.71514e-17 -4.64328e-19)
(0.0867672 -1.65765e-17 -7.86756e-19)
(0.087169 -1.60936e-17 -4.17609e-19)
(0.087562 -1.57252e-17 -7.50538e-20)
(0.0879466 -1.53653e-17 -1.85825e-19)
(0.0883229 -1.47461e-17 -3.34435e-19)
(0.0886911 -1.40464e-17 -4.86894e-19)
(0.0890513 -1.29319e-17 -3.6175e-19)
(0.0894039 -1.19345e-17 -6.77147e-19)
(0.0897488 -1.11174e-17 -5.32517e-20)
(0.0900862 -1.08976e-17 1.32417e-19)
(0.0904163 -1.07059e-17 -3.29703e-19)
(0.0907393 -1.08353e-17 -3.17625e-19)
(0.0910551 -1.13592e-17 -3.80928e-20)
(0.091364 -1.08843e-17 8.88744e-20)
(0.0916661 -9.71036e-18 1.46375e-19)
(0.0919614 -8.56471e-18 -3.38987e-19)
(0.09225 -8.43987e-18 -2.09205e-20)
(0.0925321 -9.2009e-18 1.14937e-19)
(0.0928077 -1.02941e-17 3.0324e-19)
(0.0930769 -1.06955e-17 4.43943e-20)
(0.0933398 -1.03385e-17 -3.87099e-19)
(0.0935965 -9.79802e-18 -1.98956e-19)
(0.0938469 -9.2387e-18 -5.06691e-19)
(0.0940913 -9.01214e-18 -4.32262e-19)
(0.0943295 -8.21661e-18 -7.47296e-19)
(0.0945617 -7.31232e-18 -5.9183e-19)
(0.094788 -7.04291e-18 -2.6511e-19)
(0.0950083 -6.94172e-18 -6.07259e-20)
(0.0952227 -6.88891e-18 -2.29717e-20)
(0.0954312 -6.71244e-18 -1.26521e-19)
(0.0956339 -6.44147e-18 -1.93873e-19)
(0.0958307 -7.33417e-18 -1.42577e-19)
(0.0960218 -7.38355e-18 -4.02083e-19)
(0.0962071 -6.0743e-18 -4.40764e-19)
(0.0963866 -5.09253e-18 -2.37383e-19)
(0.0965603 -5.24493e-18 -6.84055e-19)
(0.0967283 -5.65431e-18 -1.44448e-19)
(0.0968905 -5.49265e-18 1.23613e-19)
(0.097047 -5.71216e-18 2.41159e-19)
(0.0971977 -5.1733e-18 -3.72011e-19)
(0.0973426 -5.03125e-18 -1.06736e-19)
(0.0974818 -6.08993e-18 -3.13241e-19)
(0.0976151 -7.51926e-18 -4.21124e-19)
(0.0977426 -8.63591e-18 -2.35601e-19)
(0.0978642 -1.00075e-17 -2.53739e-19)
(0.09798 -1.08444e-17 -5.79423e-19)
(0.0980898 -1.1091e-17 -9.72356e-20)
(0.0981937 -1.13802e-17 -3.63596e-19)
(0.0982915 -1.19418e-17 -6.7695e-19)
(0.0983834 -1.1863e-17 -6.78022e-19)
(0.0984691 -9.88142e-18 -5.75765e-19)
(0.0985487 -8.5174e-18 -1.80187e-19)
(0.0986221 -8.19015e-18 -5.08147e-19)
(0.0986892 -8.15042e-18 -6.01551e-19)
(0.09875 -7.70202e-18 -9.11626e-19)
(0.0988044 -5.78353e-18 -5.91049e-19)
(0.0988523 -4.20907e-18 -1.177e-18)
(0.0988937 -3.39771e-18 -8.00486e-19)
(0.0989284 -1.92939e-18 -7.15321e-19)
(0.0989564 -4.42135e-19 -4.21175e-19)
(0.0989775 -1.48337e-19 -5.15211e-19)
(0.0989917 6.7864e-19 -4.05752e-19)
(0.0989988 6.90314e-19 6.49609e-19)
(0.00434351 -1.83925e-16 -8.72722e-16)
(0.0117469 -6.78627e-16 -9.89442e-16)
(0.0187564 -7.2418e-16 -7.24165e-16)
(0.0253871 -6.57882e-16 -4.99428e-16)
(0.0316267 -5.6516e-16 -3.33708e-16)
(0.0374526 -4.74391e-16 -2.21514e-16)
(0.0428571 -3.96805e-16 -1.49595e-16)
(0.0478526 -3.34407e-16 -1.04263e-16)
(0.0524656 -2.85118e-16 -7.52508e-17)
(0.0567295 -2.45984e-16 -5.61671e-17)
(0.0606792 -2.1457e-16 -4.32642e-17)
(0.0643485 -1.89114e-16 -3.44302e-17)
(0.0677679 -1.68195e-16 -2.78596e-17)
(0.0709649 -1.5056e-16 -2.29651e-17)
(0.0739633 -1.35406e-16 -1.93147e-17)
(0.0767842 -1.22527e-16 -1.61389e-17)
(0.0794454 -1.12365e-16 -1.34955e-17)
(0.0819626 -1.04023e-16 -1.1712e-17)
(0.0843494 -9.60659e-17 -1.03385e-17)
(0.0866176 -8.90768e-17 -8.74183e-18)
(0.0887775 -8.30731e-17 -7.61084e-18)
(0.0908382 -7.76512e-17 -6.42243e-18)
(0.0928077 -7.28684e-17 -5.57362e-18)
(0.0946929 -6.87199e-17 -5.35614e-18)
(0.0965001 -6.47665e-17 -4.98322e-18)
(0.098235 -6.12013e-17 -4.40831e-18)
(0.0999026 -5.81338e-17 -4.03488e-18)
(0.101507 -5.52552e-17 -3.23048e-18)
(0.103053 -5.24595e-17 -2.8343e-18)
(0.104544 -4.99176e-17 -2.60936e-18)
(0.105983 -4.78649e-17 -2.48247e-18)
(0.107373 -4.6066e-17 -2.67023e-18)
(0.108717 -4.40674e-17 -2.78753e-18)
(0.110018 -4.20847e-17 -2.21462e-18)
(0.111277 -4.05486e-17 -1.96202e-18)
(0.112498 -3.8678e-17 -2.25018e-18)
(0.113681 -3.67431e-17 -1.90314e-18)
(0.11483 -3.50047e-17 -1.46768e-18)
(0.115944 -3.33852e-17 -1.65749e-18)
(0.117027 -3.17421e-17 -2.01543e-18)
(0.118079 -3.023e-17 -1.79341e-18)
(0.119103 -2.90347e-17 -1.85769e-18)
(0.120098 -2.75502e-17 -1.51265e-18)
(0.121066 -2.67161e-17 -1.02154e-18)
(0.122009 -2.59271e-17 -9.18007e-19)
(0.122928 -2.44363e-17 -6.8622e-19)
(0.123822 -2.32225e-17 -5.63028e-19)
(0.124694 -2.24716e-17 -2.14143e-19)
(0.125545 -2.1814e-17 -8.67748e-19)
(0.126374 -2.07997e-17 -1.23042e-18)
(0.127182 -1.96722e-17 -1.12867e-18)
(0.127972 -1.90718e-17 -1.1053e-18)
(0.128742 -1.84197e-17 -1.58121e-18)
(0.129494 -1.74984e-17 -1.44462e-18)
(0.130228 -1.71787e-17 -1.16714e-18)
(0.130945 -1.64088e-17 -1.77808e-18)
(0.131645 -1.47447e-17 -1.42157e-18)
(0.132329 -1.37255e-17 -1.0604e-18)
(0.132998 -1.30217e-17 -9.55152e-19)
(0.133651 -1.23846e-17 -2.65443e-19)
(0.13429 -1.28211e-17 1.69724e-19)
(0.134914 -1.30104e-17 -8.6069e-19)
(0.135524 -1.21291e-17 -1.25946e-18)
(0.13612 -1.13568e-17 -7.69987e-19)
(0.136704 -1.12688e-17 -4.97162e-20)
(0.137274 -1.13732e-17 -4.55049e-19)
(0.137831 -1.08671e-17 -2.54587e-19)
(0.138376 -1.02419e-17 -5.23606e-19)
(0.138909 -9.46408e-18 -8.11323e-19)
(0.139431 -8.34599e-18 -1.011e-18)
(0.13994 -7.49672e-18 -1.03561e-19)
(0.140438 -7.65696e-18 5.3396e-19)
(0.140925 -7.7113e-18 -1.1528e-19)
(0.141402 -7.63626e-18 -1.11449e-19)
(0.141867 -8.0347e-18 5.6658e-19)
(0.142322 -7.98566e-18 5.2019e-19)
(0.142766 -7.2109e-18 6.87794e-20)
(0.143201 -5.97919e-18 -7.70128e-19)
(0.143625 -5.66141e-18 -5.57195e-19)
(0.144039 -6.50295e-18 2.57422e-19)
(0.144444 -7.77863e-18 -3.03998e-20)
(0.144839 -8.3005e-18 -1.02058e-19)
(0.145224 -7.65502e-18 -1.14601e-18)
(0.145601 -6.89e-18 -5.07118e-19)
(0.145967 -6.45708e-18 -6.60234e-19)
(0.146325 -6.08198e-18 -3.56121e-19)
(0.146674 -4.87659e-18 -1.3788e-18)
(0.147013 -3.76453e-18 -7.65806e-19)
(0.147344 -3.55134e-18 -3.99415e-19)
(0.147666 -3.70741e-18 9.00128e-21)
(0.147979 -4.01059e-18 4.45329e-19)
(0.148283 -4.21903e-18 2.44989e-19)
(0.148579 -4.15667e-18 -7.35925e-20)
(0.148866 -5.10052e-18 -2.03525e-19)
(0.149145 -5.20983e-18 -3.51855e-19)
(0.149415 -3.90333e-18 -7.60365e-19)
(0.149676 -3.05439e-18 -1.05399e-18)
(0.149929 -2.87604e-18 -6.11335e-19)
(0.150173 -2.88645e-18 7.98126e-19)
(0.150409 -3.20264e-18 1.33608e-18)
(0.150637 -3.75334e-18 5.59398e-19)
(0.150856 -3.19719e-18 4.9643e-19)
(0.151067 -3.24567e-18 6.88792e-19)
(0.151269 -4.20892e-18 3.43479e-19)
(0.151462 -5.13169e-18 4.87692e-19)
(0.151647 -6.0517e-18 -1.84633e-20)
(0.151824 -7.35793e-18 4.4536e-19)
(0.151992 -7.77476e-18 -2.15301e-19)
(0.152151 -8.10725e-18 6.04865e-19)
(0.152302 -8.84477e-18 3.00058e-20)
(0.152444 -9.18795e-18 -5.0321e-19)
(0.152577 -9.3289e-18 -3.3443e-19)
(0.152701 -7.73255e-18 -6.76448e-19)
(0.152817 -6.43605e-18 -7.78294e-19)
(0.152923 -6.51223e-18 -8.22274e-19)
(0.15302 -6.59404e-18 -7.8051e-19)
(0.153108 -6.12497e-18 -7.54951e-19)
(0.153187 -4.47039e-18 -9.83801e-19)
(0.153256 -2.74326e-18 -8.55263e-19)
(0.153316 -1.81365e-18 -2.1592e-19)
(0.153367 -7.58485e-19 -2.1122e-19)
(0.153407 2.77395e-19 -5.34399e-20)
(0.153438 3.16292e-19 -3.06814e-19)
(0.153458 1.5049e-18 -2.8344e-21)
(0.153469 9.87253e-19 1.9992e-18)
(0.0058131 -7.4327e-17 -4.46413e-16)
(0.0158176 -3.79465e-16 -7.13112e-16)
(0.0253871 -4.98918e-16 -6.57803e-16)
(0.0344169 -5.26835e-16 -5.27566e-16)
(0.0428298 -5.01487e-16 -3.95262e-16)
(0.050588 -4.53948e-16 -2.88635e-16)
(0.0577007 -4.01751e-16 -2.10798e-16)
(0.0642116 -3.52852e-16 -1.56339e-16)
(0.0701794 -3.09897e-16 -1.18361e-16)
(0.0756659 -2.73248e-16 -9.16957e-17)
(0.0807286 -2.42328e-16 -7.27053e-17)
(0.0854188 -2.16233e-16 -5.87202e-17)
(0.0897811 -1.93977e-16 -4.80794e-17)
(0.0938537 -1.74914e-16 -3.9995e-17)
(0.0976691 -1.58247e-16 -3.37269e-17)
(0.101255 -1.43854e-16 -2.86831e-17)
(0.104636 -1.32067e-16 -2.48474e-17)
(0.107831 -1.21971e-16 -2.15926e-17)
(0.11086 -1.12585e-16 -1.84614e-17)
(0.113736 -1.04339e-16 -1.55925e-17)
(0.116473 -9.72338e-17 -1.345e-17)
(0.119083 -9.08135e-17 -1.17308e-17)
(0.121576 -8.52941e-17 -1.03456e-17)
(0.123961 -8.02046e-17 -9.6141e-18)
(0.126246 -7.50981e-17 -8.72813e-18)
(0.128439 -7.05649e-17 -7.85801e-18)
(0.130545 -6.64862e-17 -6.98737e-18)
(0.132571 -6.30475e-17 -6.43596e-18)
(0.134522 -5.97696e-17 -6.19757e-18)
(0.136401 -5.64973e-17 -5.66759e-18)
(0.138215 -5.39767e-17 -5.166e-18)
(0.139965 -5.14627e-17 -5.14875e-18)
(0.141657 -4.83878e-17 -5.04179e-18)
(0.143293 -4.57203e-17 -4.22501e-18)
(0.144877 -4.39053e-17 -3.4949e-18)
(0.14641 -4.1501e-17 -3.60571e-18)
(0.147896 -3.88804e-17 -3.07329e-18)
(0.149337 -3.70535e-17 -2.43639e-18)
(0.150735 -3.54273e-17 -2.43378e-18)
(0.152092 -3.32292e-17 -2.75238e-18)
(0.15341 -3.13102e-17 -3.00936e-18)
(0.15469 -2.97634e-17 -3.30144e-18)
(0.155935 -2.79448e-17 -2.77726e-18)
(0.157145 -2.68659e-17 -1.80849e-18)
(0.158323 -2.59233e-17 -1.52217e-18)
(0.159469 -2.46465e-17 -1.31684e-18)
(0.160585 -2.33088e-17 -1.37068e-18)
(0.161672 -2.27636e-17 -1.17673e-18)
(0.162731 -2.22741e-17 -1.85153e-18)
(0.163763 -2.08297e-17 -2.14519e-18)
(0.164769 -1.96012e-17 -1.77535e-18)
(0.16575 -1.9066e-17 -1.35448e-18)
(0.166706 -1.83815e-17 -2.11175e-18)
(0.16764 -1.73538e-17 -2.36602e-18)
(0.16855 -1.69659e-17 -2.17342e-18)
(0.169439 -1.58229e-17 -2.04634e-18)
(0.170307 -1.41216e-17 -1.73355e-18)
(0.171154 -1.32839e-17 -1.26799e-18)
(0.171981 -1.25269e-17 -9.60789e-19)
(0.172788 -1.1973e-17 -5.93775e-19)
(0.173577 -1.28501e-17 -2.13254e-19)
(0.174348 -1.3194e-17 -9.98174e-19)
(0.1751 -1.1989e-17 -1.2314e-18)
(0.175836 -1.08821e-17 -8.15162e-19)
(0.176554 -1.10263e-17 -8.50126e-19)
(0.177256 -1.13207e-17 -3.34743e-19)
(0.177942 -1.08751e-17 4.39489e-19)
(0.178613 -1.06821e-17 -1.40097e-20)
(0.179268 -9.93737e-18 -6.32677e-19)
(0.179908 -8.71037e-18 -5.52594e-19)
(0.180533 -7.83221e-18 -1.90964e-19)
(0.181145 -8.3019e-18 -1.9996e-19)
(0.181742 -8.60976e-18 -1.41725e-19)
(0.182325 -8.15429e-18 -6.51433e-19)
(0.182895 -8.45173e-18 3.84489e-19)
(0.183452 -8.76286e-18 3.15358e-19)
(0.183995 -8.54026e-18 -2.73144e-19)
(0.184526 -7.45644e-18 -1.6956e-18)
(0.185044 -6.50536e-18 -1.77149e-18)
(0.18555 -7.28139e-18 -8.07235e-19)
(0.186044 -8.53248e-18 -1.1179e-18)
(0.186526 -9.05897e-18 -9.92027e-19)
(0.186996 -8.29098e-18 -1.04561e-18)
(0.187454 -7.35694e-18 -5.00096e-19)
(0.187901 -6.75019e-18 -3.80702e-19)
(0.188336 -6.45855e-18 -2.20317e-19)
(0.18876 -5.3883e-18 -8.48372e-19)
(0.189173 -3.94215e-18 -1.61757e-19)
(0.189575 -3.88234e-18 -7.00069e-20)
(0.189966 -4.03913e-18 -1.46517e-19)
(0.190346 -4.43436e-18 8.01531e-19)
(0.190716 -4.89483e-18 1.0158e-18)
(0.191075 -5.15048e-18 4.24206e-19)
(0.191423 -5.88e-18 -1.05201e-19)
(0.19176 -5.93508e-18 -4.89932e-19)
(0.192087 -4.94877e-18 -1.56739e-18)
(0.192404 -3.6523e-18 -2.04918e-18)
(0.19271 -2.73482e-18 -9.85696e-19)
(0.193006 -2.92626e-18 1.46175e-18)
(0.193292 -3.96429e-18 2.2303e-18)
(0.193567 -4.30583e-18 1.05126e-18)
(0.193832 -3.55447e-18 1.73016e-18)
(0.194087 -3.80716e-18 1.67591e-18)
(0.194331 -4.3527e-18 1.04389e-18)
(0.194565 -5.12347e-18 6.69577e-19)
(0.194788 -5.814e-18 2.43258e-19)
(0.195001 -6.7417e-18 1.89571e-19)
(0.195204 -6.81836e-18 -6.91424e-20)
(0.195396 -7.1014e-18 1.03234e-18)
(0.195578 -8.17594e-18 3.23996e-19)
(0.195749 -8.17906e-18 -2.98432e-19)
(0.19591 -8.24716e-18 -5.46404e-19)
(0.19606 -7.16354e-18 -1.16102e-18)
(0.196199 -5.79925e-18 -1.1318e-18)
(0.196327 -5.55995e-18 -8.05143e-19)
(0.196444 -5.67013e-18 -1.93207e-19)
(0.19655 -5.42649e-18 -1.10491e-18)
(0.196645 -3.75603e-18 -1.16673e-18)
(0.196729 -1.85134e-18 -4.79572e-19)
(0.196801 -1.09065e-18 1.61745e-19)
(0.196861 -2.67878e-19 -3.69693e-19)
(0.19691 4.17776e-19 1.14557e-19)
(0.196947 4.99447e-19 -3.99978e-20)
(0.196972 2.38693e-18 -3.89541e-19)
(0.196984 1.30116e-18 3.01718e-18)
(0.00721299 -3.72574e-17 -2.77448e-16)
(0.0196563 -2.17425e-16 -5.35951e-16)
(0.0316267 -3.33055e-16 -5.64839e-16)
(0.0428298 -3.94398e-16 -5.02202e-16)
(0.0530767 -4.08564e-16 -4.0957e-16)
(0.0623393 -3.94825e-16 -3.2142e-16)
(0.0706995 -3.68027e-16 -2.49674e-16)
(0.0782721 -3.36686e-16 -1.9464e-16)
(0.0851681 -3.05279e-16 -1.53434e-16)
(0.0914837 -2.76019e-16 -1.22598e-16)
(0.0972996 -2.49563e-16 -9.96717e-17)
(0.102683 -2.25925e-16 -8.19719e-17)
(0.107688 -2.05272e-16 -6.79509e-17)
(0.112362 -1.87178e-16 -5.69146e-17)
(0.116742 -1.71076e-16 -4.83451e-17)
(0.120861 -1.56931e-16 -4.13926e-17)
(0.124747 -1.44856e-16 -3.60567e-17)
(0.128421 -1.33723e-16 -3.12355e-17)
(0.131906 -1.23597e-16 -2.68741e-17)
(0.135216 -1.15183e-16 -2.31972e-17)
(0.138369 -1.07763e-16 -2.02238e-17)
(0.141376 -1.00879e-16 -1.79926e-17)
(0.14425 -9.48754e-17 -1.56713e-17)
(0.147 -8.92064e-17 -1.36736e-17)
(0.149636 -8.36065e-17 -1.23657e-17)
(0.152165 -7.86138e-17 -1.11848e-17)
(0.154595 -7.43488e-17 -1.01447e-17)
(0.156933 -7.07282e-17 -9.7833e-18)
(0.159184 -6.66648e-17 -9.59368e-18)
(0.161354 -6.26694e-17 -8.83393e-18)
(0.163447 -5.96524e-17 -7.97918e-18)
(0.165468 -5.68121e-17 -7.38127e-18)
(0.167421 -5.35232e-17 -7.08144e-18)
(0.169309 -5.02728e-17 -6.58739e-18)
(0.171137 -4.80994e-17 -5.85884e-18)
(0.172906 -4.55677e-17 -5.52568e-18)
(0.17462 -4.25055e-17 -4.70519e-18)
(0.176283 -4.04852e-17 -4.13018e-18)
(0.177895 -3.86702e-17 -3.84247e-18)
(0.179459 -3.66168e-17 -3.35085e-18)
(0.180979 -3.46985e-17 -4.2937e-18)
(0.182454 -3.26748e-17 -4.70601e-18)
(0.183889 -3.02292e-17 -4.21182e-18)
(0.185283 -2.89104e-17 -2.50909e-18)
(0.186639 -2.81169e-17 -2.24961e-18)
(0.187959 -2.69529e-17 -1.86733e-18)
(0.189243 -2.59102e-17 -2.16818e-18)
(0.190493 -2.53142e-17 -2.1829e-18)
(0.191711 -2.45434e-17 -2.03945e-18)
(0.192897 -2.27393e-17 -1.93305e-18)
(0.194053 -2.13909e-17 -1.81914e-18)
(0.19518 -2.12579e-17 -2.0082e-18)
(0.196278 -2.07703e-17 -3.0653e-18)
(0.197349 -1.92277e-17 -3.01643e-18)
(0.198394 -1.8354e-17 -2.24616e-18)
(0.199413 -1.74096e-17 -2.53071e-18)
(0.200408 -1.59319e-17 -1.8826e-18)
(0.201378 -1.50503e-17 -1.40646e-18)
(0.202325 -1.43837e-17 -1.12288e-18)
(0.20325 -1.39609e-17 -5.88551e-19)
(0.204153 -1.46519e-17 -4.61459e-19)
(0.205034 -1.49656e-17 -9.47054e-19)
(0.205894 -1.39217e-17 -1.23326e-18)
(0.206735 -1.31539e-17 -1.06698e-18)
(0.207555 -1.26424e-17 -1.31736e-18)
(0.208357 -1.22461e-17 -2.28038e-20)
(0.20914 -1.26223e-17 8.46336e-19)
(0.209904 -1.28899e-17 1.93669e-19)
(0.210651 -1.19625e-17 6.605e-20)
(0.211381 -1.1001e-17 5.22465e-19)
(0.212093 -1.06667e-17 -3.67578e-19)
(0.212789 -1.05702e-17 -1.19858e-18)
(0.213468 -1.06977e-17 -8.14686e-19)
(0.214132 -1.02998e-17 -6.9947e-19)
(0.21478 -1.03812e-17 3.32954e-19)
(0.215412 -1.10277e-17 -1.75622e-19)
(0.21603 -1.10702e-17 -7.36883e-19)
(0.216633 -1.01723e-17 -2.24606e-18)
(0.217221 -8.78185e-18 -2.73843e-18)
(0.217795 -9.25032e-18 -1.28778e-18)
(0.218355 -1.0438e-17 -1.76443e-18)
(0.218901 -1.04356e-17 -1.83247e-18)
(0.219433 -9.7246e-18 -1.38279e-18)
(0.219952 -9.12263e-18 -1.27659e-18)
(0.220458 -8.64083e-18 -1.07109e-18)
(0.220951 -8.02862e-18 -8.89736e-19)
(0.221431 -6.814e-18 -3.79288e-20)
(0.221898 -5.90175e-18 3.89704e-19)
(0.222352 -5.96262e-18 -1.36743e-19)
(0.222794 -5.63128e-18 2.59313e-19)
(0.223223 -5.76945e-18 1.22836e-18)
(0.22364 -6.68872e-18 1.8283e-18)
(0.224045 -7.17479e-18 1.61517e-18)
(0.224438 -7.6817e-18 1.5652e-19)
(0.224819 -7.89856e-18 7.90652e-20)
(0.225188 -7.06168e-18 -6.90464e-19)
(0.225545 -5.37531e-18 -2.71861e-18)
(0.22589 -3.68222e-18 -1.61048e-18)
(0.226223 -3.68658e-18 1.37384e-18)
(0.226545 -5.41846e-18 2.1405e-18)
(0.226855 -5.55333e-18 1.53735e-18)
(0.227153 -4.68066e-18 2.56783e-18)
(0.22744 -5.2157e-18 2.06281e-18)
(0.227715 -5.81002e-18 1.48041e-18)
(0.227978 -6.29677e-18 6.32911e-19)
(0.228229 -6.65646e-18 3.66159e-19)
(0.228469 -7.21141e-18 -6.14088e-19)
(0.228697 -6.64821e-18 -1.70945e-19)
(0.228913 -6.95344e-18 5.94919e-19)
(0.229117 -8.18037e-18 7.16489e-19)
(0.229309 -8.19232e-18 6.02074e-19)
(0.22949 -8.30587e-18 -6.0885e-19)
(0.229658 -7.218e-18 -2.28433e-18)
(0.229814 -5.60951e-18 -1.89331e-18)
(0.229958 -4.98911e-18 -5.27676e-19)
(0.23009 -5.42576e-18 6.11636e-19)
(0.230209 -5.20553e-18 -1.16853e-18)
(0.230315 -3.28061e-18 -5.1844e-19)
(0.230409 -1.77693e-18 -1.43627e-19)
(0.23049 -1.25911e-18 1.64955e-20)
(0.230558 -3.33375e-19 -6.62623e-19)
(0.230613 5.09226e-19 -6.51519e-20)
(0.230654 4.91365e-19 -4.17604e-19)
(0.230682 2.76654e-18 -1.71662e-18)
(0.230696 1.52854e-18 2.8637e-18)
(0.00854352 -1.76384e-17 -1.88058e-16)
(0.0232613 -1.26875e-16 -4.12391e-16)
(0.0374526 -2.2089e-16 -4.74014e-16)
(0.050588 -2.87961e-16 -4.54598e-16)
(0.0623393 -3.20557e-16 -3.95793e-16)
(0.072722 -3.28141e-16 -3.28948e-16)
(0.0819397 -3.20585e-16 -2.68638e-16)
(0.0902084 -3.04622e-16 -2.18303e-16)
(0.0977012 -2.84884e-16 -1.78118e-16)
(0.10455 -2.64153e-16 -1.46539e-16)
(0.110854 -2.43835e-16 -1.21724e-16)
(0.116693 -2.24363e-16 -1.02082e-16)
(0.122129 -2.06477e-16 -8.59844e-17)
(0.127212 -1.90535e-16 -7.29027e-17)
(0.131983 -1.76096e-16 -6.25505e-17)
(0.136476 -1.63084e-16 -5.40088e-17)
(0.14072 -1.51419e-16 -4.68577e-17)
(0.14474 -1.40543e-16 -4.06115e-17)
(0.148557 -1.30778e-16 -3.55067e-17)
(0.152189 -1.22308e-16 -3.06891e-17)
(0.15565 -1.14893e-16 -2.69301e-17)
(0.158956 -1.07729e-16 -2.401e-17)
(0.162118 -1.011e-16 -2.14692e-17)
(0.165147 -9.56727e-17 -1.85823e-17)
(0.168053 -9.04061e-17 -1.66534e-17)
(0.170843 -8.51742e-17 -1.5109e-17)
(0.173526 -8.08059e-17 -1.3923e-17)
(0.176109 -7.70454e-17 -1.30164e-17)
(0.178597 -7.2599e-17 -1.21841e-17)
(0.180996 -6.8033e-17 -1.13939e-17)
(0.183312 -6.46106e-17 -1.06361e-17)
(0.185549 -6.15804e-17 -9.9308e-18)
(0.187711 -5.83645e-17 -9.37947e-18)
(0.189803 -5.50437e-17 -8.84769e-18)
(0.191828 -5.23184e-17 -8.3838e-18)
(0.193788 -4.93895e-17 -7.6301e-18)
(0.195689 -4.64119e-17 -6.74383e-18)
(0.197531 -4.42879e-17 -6.83429e-18)
(0.199319 -4.19994e-17 -6.42322e-18)
(0.201054 -4.02708e-17 -5.92081e-18)
(0.202739 -3.86847e-17 -5.87871e-18)
(0.204375 -3.61346e-17 -5.34692e-18)
(0.205966 -3.29467e-17 -4.40671e-18)
(0.207512 -3.14666e-17 -3.53039e-18)
(0.209016 -3.10307e-17 -2.39183e-18)
(0.210479 -3.00793e-17 -2.1745e-18)
(0.211903 -2.90596e-17 -1.91531e-18)
(0.213289 -2.79906e-17 -1.97534e-18)
(0.214639 -2.70669e-17 -1.86145e-18)
(0.215954 -2.55668e-17 -2.15182e-18)
(0.217235 -2.45552e-17 -1.84587e-18)
(0.218484 -2.45183e-17 -3.35225e-18)
(0.219701 -2.3392e-17 -4.25009e-18)
(0.220887 -2.13168e-17 -3.54741e-18)
(0.222044 -2.1004e-17 -2.41337e-18)
(0.223172 -2.0012e-17 -2.70148e-18)
(0.224273 -1.81259e-17 -2.53042e-18)
(0.225347 -1.74792e-17 -1.98958e-18)
(0.226395 -1.67358e-17 -1.52305e-18)
(0.227417 -1.63712e-17 -3.69951e-19)
(0.228415 -1.72757e-17 1.58547e-19)
(0.229389 -1.75078e-17 -8.00188e-20)
(0.23034 -1.64244e-17 -6.95168e-19)
(0.231268 -1.56732e-17 -1.08998e-18)
(0.232175 -1.47464e-17 -1.54593e-18)
(0.233059 -1.42152e-17 -4.2809e-19)
(0.233923 -1.49268e-17 5.528e-19)
(0.234767 -1.50451e-17 -1.49076e-19)
(0.235591 -1.39981e-17 8.10517e-20)
(0.236395 -1.37536e-17 3.61651e-19)
(0.23718 -1.39101e-17 -5.72964e-19)
(0.237947 -1.33823e-17 -1.3716e-18)
(0.238695 -1.28448e-17 -1.3896e-18)
(0.239426 -1.21477e-17 -6.92843e-19)
(0.240139 -1.26663e-17 8.3279e-19)
(0.240835 -1.35494e-17 -2.16527e-19)
(0.241514 -1.36186e-17 -1.22158e-18)
(0.242177 -1.28759e-17 -2.11804e-18)
(0.242824 -1.09572e-17 -1.82464e-18)
(0.243454 -1.13174e-17 -4.61312e-19)
(0.24407 -1.26545e-17 -1.60244e-18)
(0.244669 -1.23662e-17 -1.76097e-18)
(0.245254 -1.16789e-17 -2.07464e-18)
(0.245823 -1.11234e-17 -2.98123e-18)
(0.246378 -1.04691e-17 -2.54558e-18)
(0.246919 -9.29595e-18 -2.10651e-18)
(0.247445 -8.29938e-18 -3.46492e-19)
(0.247956 -8.2072e-18 2.85432e-19)
(0.248454 -7.9114e-18 -9.69749e-19)
(0.248938 -7.1806e-18 6.55117e-19)
(0.249409 -7.33538e-18 1.49708e-18)
(0.249865 -8.04132e-18 1.98321e-18)
(0.250308 -9.2302e-18 2.41647e-18)
(0.250738 -9.60338e-18 1.05892e-18)
(0.251155 -9.21781e-18 9.89954e-19)
(0.251558 -9.5361e-18 -3.99006e-19)
(0.251948 -7.76783e-18 -1.61695e-18)
(0.252326 -4.77384e-18 -1.66326e-19)
(0.25269 -4.78395e-18 8.79572e-19)
(0.253041 -6.66232e-18 5.19195e-19)
(0.25338 -6.58283e-18 1.42081e-18)
(0.253705 -6.07627e-18 2.50218e-18)
(0.254018 -6.78893e-18 1.67546e-18)
(0.254318 -7.02472e-18 1.48097e-18)
(0.254605 -7.36177e-18 1.52894e-18)
(0.254879 -7.90814e-18 3.14128e-19)
(0.255141 -7.94109e-18 -1.4254e-19)
(0.255389 -6.97788e-18 -1.29892e-19)
(0.255625 -7.20899e-18 -1.71975e-19)
(0.255848 -8.02577e-18 8.31109e-19)
(0.256057 -8.5855e-18 1.58371e-18)
(0.256254 -9.27654e-18 -7.05909e-19)
(0.256437 -7.77859e-18 -2.98124e-18)
(0.256607 -5.32586e-18 -1.75588e-18)
(0.256764 -4.39094e-18 -3.22716e-19)
(0.256907 -5.51569e-18 1.0519e-19)
(0.257037 -5.23056e-18 -2.39165e-19)
(0.257153 -3.1073e-18 -6.67489e-19)
(0.257255 -2.01037e-18 -7.84606e-19)
(0.257343 -1.553e-18 -2.31801e-19)
(0.257417 -5.80735e-19 1.20448e-19)
(0.257477 3.50675e-19 -1.62337e-18)
(0.257522 6.89438e-20 -1.23998e-18)
(0.257552 2.91254e-18 -3.97859e-18)
(0.257567 1.85819e-18 2.00978e-18)
(0.00980125 -8.1021e-18 -1.34741e-16)
(0.0266298 -7.69847e-17 -3.24812e-16)
(0.0428571 -1.48972e-16 -3.96406e-16)
(0.0577007 -2.10155e-16 -4.02313e-16)
(0.0706995 -2.48802e-16 -3.68857e-16)
(0.0819397 -2.67798e-16 -3.21294e-16)
(0.0917664 -2.72614e-16 -2.73285e-16)
(0.100504 -2.68089e-16 -2.30208e-16)
(0.108387 -2.58226e-16 -1.93377e-16)
(0.115583 -2.45364e-16 -1.63236e-16)
(0.122209 -2.30958e-16 -1.38465e-16)
(0.128352 -2.15957e-16 -1.1799e-16)
(0.13408 -2.01462e-16 -1.01017e-16)
(0.139446 -1.88255e-16 -8.71137e-17)
(0.144493 -1.75869e-16 -7.53624e-17)
(0.149255 -1.64138e-16 -6.52976e-17)
(0.153761 -1.5334e-16 -5.69934e-17)
(0.158037 -1.43395e-16 -4.97983e-17)
(0.162104 -1.34046e-16 -4.35776e-17)
(0.165979 -1.2596e-16 -3.80583e-17)
(0.169679 -1.19056e-16 -3.30243e-17)
(0.173217 -1.12343e-16 -2.9319e-17)
(0.176605 -1.0575e-16 -2.66707e-17)
(0.179855 -9.99339e-17 -2.41003e-17)
(0.182976 -9.48649e-17 -2.14911e-17)
(0.185977 -8.99332e-17 -1.95448e-17)
(0.188864 -8.54541e-17 -1.78996e-17)
(0.191646 -8.1353e-17 -1.66016e-17)
(0.194329 -7.68801e-17 -1.52229e-17)
(0.196918 -7.25474e-17 -1.40956e-17)
(0.199418 -6.89507e-17 -1.37885e-17)
(0.201835 -6.56278e-17 -1.27333e-17)
(0.204173 -6.2285e-17 -1.19981e-17)
(0.206436 -5.89865e-17 -1.15622e-17)
(0.208627 -5.60495e-17 -1.11812e-17)
(0.21075 -5.29167e-17 -1.03088e-17)
(0.212809 -5.04504e-17 -9.49905e-18)
(0.214805 -4.82062e-17 -8.86814e-18)
(0.216743 -4.53703e-17 -8.5864e-18)
(0.218624 -4.32029e-17 -8.62922e-18)
(0.220452 -4.10863e-17 -7.81961e-18)
(0.222227 -3.85708e-17 -6.55936e-18)
(0.223953 -3.60849e-17 -5.55722e-18)