/*--------------------------------*- C++ -*----------------------------------*\
| =========                 |                                                 |
| \\      /  F ield         | OpenFOAM: The Open Source CFD Toolbox           |
|  \\    /   O peration     | Version:  2306                                  |
|   \\  /    A nd           | Website:  www.openfoam.com                      |
|    \\/     M anipulation  |                                                 |
\*---------------------------------------------------------------------------*/
// * * * * * * * * * * * * * * * * * * * * * * * * * * * * * * * * * * * * * //
FoamFile
{
    version         2;
    format          ascii;
    class           volScalarField;
    location        "2.47";
    object          epsilon;
}

dimensions      [ 0 2 -3 0 0 0 0 ];

internalField   nonuniform List<scalar> 
14751
(
1.03776e-05
1.02083e-05
1.00474e-05
9.88458e-06
9.68616e-06
9.49723e-06
9.29661e-06
9.09503e-06
8.89466e-06
8.69339e-06
8.49606e-06
8.30154e-06
8.11454e-06
7.93139e-06
7.75601e-06
7.58595e-06
7.42567e-06
7.27229e-06
7.12816e-06
6.99214e-06
6.86519e-06
6.7471e-06
6.63766e-06
6.53695e-06
6.44478e-06
6.36087e-06
6.2851e-06
6.21719e-06
6.15711e-06
6.10434e-06
6.05883e-06
6.02029e-06
5.98863e-06
5.96354e-06
5.94491e-06
5.93246e-06
5.92608e-06
5.92537e-06
5.93031e-06
5.94072e-06
5.95662e-06
5.97806e-06
6.00498e-06
6.03728e-06
6.07465e-06
6.11679e-06
6.16345e-06
6.21456e-06
6.27031e-06
6.33133e-06
6.39794e-06
6.47042e-06
6.54839e-06
6.63092e-06
6.71693e-06
6.80567e-06
6.89767e-06
6.9948e-06
7.09909e-06
7.21147e-06
7.33041e-06
7.45271e-06
7.57548e-06
7.69853e-06
7.82446e-06
7.95708e-06
8.09796e-06
8.24583e-06
8.39694e-06
8.54825e-06
8.69904e-06
8.8507e-06
9.00481e-06
9.16166e-06
9.32035e-06
9.47948e-06
9.63751e-06
9.79294e-06
9.94529e-06
1.00933e-05
1.02366e-05
1.03732e-05
1.05031e-05
1.06255e-05
1.07366e-05
1.08383e-05
1.09245e-05
1.09984e-05
1.10567e-05
1.10939e-05
1.11171e-05
1.11144e-05
1.10967e-05
1.10549e-05
1.09939e-05
1.08992e-05
1.07892e-05
1.06712e-05
1.05289e-05
7.34595e-06
7.23494e-06
7.12663e-06
7.01585e-06
6.88739e-06
6.7624e-06
6.63121e-06
6.49923e-06
6.36779e-06
6.23628e-06
6.10728e-06
5.98044e-06
5.85814e-06
5.73876e-06
5.6243e-06
5.5137e-06
5.40918e-06
5.3094e-06
5.21555e-06
5.12712e-06
5.04459e-06
4.96785e-06
4.89682e-06
4.83152e-06
4.77185e-06
4.71765e-06
4.66884e-06
4.62525e-06
4.58685e-06
4.55333e-06
4.52465e-06
4.50063e-06
4.48119e-06
4.46617e-06
4.45547e-06
4.44893e-06
4.44646e-06
4.44783e-06
4.45298e-06
4.46179e-06
4.47427e-06
4.49043e-06
4.51025e-06
4.53368e-06
4.56054e-06
4.59063e-06
4.62375e-06
4.65982e-06
4.69889e-06
4.74132e-06
4.78734e-06
4.83716e-06
4.89061e-06
4.94719e-06
5.00616e-06
5.06694e-06
5.12965e-06
5.19528e-06
5.26511e-06
5.33996e-06
5.41917e-06
5.50089e-06
5.58314e-06
5.66538e-06
5.74885e-06
5.83583e-06
5.92759e-06
6.02369e-06
6.12204e-06
6.22064e-06
6.31871e-06
6.41684e-06
6.51594e-06
6.61629e-06
6.71748e-06
6.81865e-06
6.91886e-06
7.01716e-06
7.11317e-06
7.20612e-06
7.29573e-06
7.38089e-06
7.4614e-06
7.53683e-06
7.60523e-06
7.66719e-06
7.71978e-06
7.76417e-06
7.79883e-06
7.82083e-06
7.83336e-06
7.83067e-06
7.81771e-06
7.79015e-06
7.74982e-06
7.69011e-06
7.61932e-06
7.54113e-06
7.44783e-06
5.55108e-06
5.46873e-06
5.38597e-06
5.30039e-06
5.20679e-06
5.1137e-06
5.01719e-06
4.92011e-06
4.82336e-06
4.72714e-06
4.63289e-06
4.54068e-06
4.45167e-06
4.36533e-06
4.28265e-06
4.20327e-06
4.1282e-06
4.05688e-06
3.98987e-06
3.92695e-06
3.86834e-06
3.81396e-06
3.76376e-06
3.71774e-06
3.67582e-06
3.63788e-06
3.60385e-06
3.57362e-06
3.54713e-06
3.52419e-06
3.50475e-06
3.48867e-06
3.4759e-06
3.46632e-06
3.45985e-06
3.4564e-06
3.45587e-06
3.45812e-06
3.46308e-06
3.47071e-06
3.48096e-06
3.49384e-06
3.50934e-06
3.52742e-06
3.54797e-06
3.57089e-06
3.59602e-06
3.62327e-06
3.65264e-06
3.68432e-06
3.71845e-06
3.7552e-06
3.79453e-06
3.83616e-06
3.87963e-06
3.92451e-06
3.97074e-06
4.01879e-06
4.06946e-06
4.12334e-06
4.18027e-06
4.23924e-06
4.29896e-06
4.35882e-06
4.41933e-06
4.48175e-06
4.54703e-06
4.61512e-06
4.68494e-06
4.75521e-06
4.82526e-06
4.89524e-06
4.96559e-06
5.03655e-06
5.10791e-06
5.17916e-06
5.24969e-06
5.31888e-06
5.3864e-06
5.45175e-06
5.51463e-06
5.57441e-06
5.6308e-06
5.68343e-06
5.73136e-06
5.77456e-06
5.8116e-06
5.84278e-06
5.86728e-06
5.88377e-06
5.89333e-06
5.8932e-06
5.88523e-06
5.86739e-06
5.84015e-06
5.8006e-06
5.75178e-06
5.69518e-06
5.62754e-06
4.38276e-06
4.31668e-06
4.24893e-06
4.17839e-06
4.10488e-06
4.0307e-06
3.95459e-06
3.87822e-06
3.80215e-06
3.72701e-06
3.6536e-06
3.58221e-06
3.51335e-06
3.44704e-06
3.38372e-06
3.32338e-06
3.26637e-06
3.21254e-06
3.16209e-06
3.11495e-06
3.07117e-06
3.03071e-06
2.99351e-06
2.95957e-06
2.92879e-06
2.9011e-06
2.87642e-06
2.85466e-06
2.83576e-06
2.81958e-06
2.80608e-06
2.79515e-06
2.78673e-06
2.78074e-06
2.7771e-06
2.77576e-06
2.77662e-06
2.77961e-06
2.78469e-06
2.79179e-06
2.80088e-06
2.81195e-06
2.82498e-06
2.83996e-06
2.85682e-06
2.87549e-06
2.89586e-06
2.91784e-06
2.94144e-06
2.96671e-06
2.99378e-06
3.02273e-06
3.05358e-06
3.08619e-06
3.12028e-06
3.15553e-06
3.19183e-06
3.22939e-06
3.26865e-06
3.31007e-06
3.35365e-06
3.39885e-06
3.44486e-06
3.49115e-06
3.53788e-06
3.5857e-06
3.63526e-06
3.68667e-06
3.73935e-06
3.79251e-06
3.84564e-06
3.89867e-06
3.9518e-06
4.00516e-06
4.05865e-06
4.11192e-06
4.16458e-06
4.21619e-06
4.26648e-06
4.31509e-06
4.36174e-06
4.40602e-06
4.44767e-06
4.4863e-06
4.52149e-06
4.55307e-06
4.58039e-06
4.60338e-06
4.62154e-06
4.6343e-06
4.64173e-06
4.64262e-06
4.6373e-06
4.62482e-06
4.60512e-06
4.57692e-06
4.54077e-06
4.49677e-06
4.44399e-06
3.5644e-06
3.50891e-06
3.45152e-06
3.39158e-06
3.33122e-06
3.2699e-06
3.20751e-06
3.14514e-06
3.08317e-06
3.02237e-06
2.96318e-06
2.90597e-06
2.85093e-06
2.79833e-06
2.74829e-06
2.70096e-06
2.65637e-06
2.61453e-06
2.57548e-06
2.53918e-06
2.50564e-06
2.47478e-06
2.44659e-06
2.42101e-06
2.39798e-06
2.37744e-06
2.3593e-06
2.34349e-06
2.32993e-06
2.31855e-06
2.30928e-06
2.30205e-06
2.29678e-06
2.29344e-06
2.29193e-06
2.29223e-06
2.29428e-06
2.29802e-06
2.30341e-06
2.31039e-06
2.31893e-06
2.32901e-06
2.34062e-06
2.35375e-06
2.36835e-06
2.38438e-06
2.40175e-06
2.42041e-06
2.44032e-06
2.46151e-06
2.48406e-06
2.50801e-06
2.53341e-06
2.56016e-06
2.5881e-06
2.617e-06
2.64675e-06
2.67741e-06
2.70926e-06
2.74257e-06
2.77742e-06
2.81351e-06
2.85033e-06
2.88747e-06
2.92493e-06
2.96305e-06
3.00224e-06
3.04259e-06
3.08383e-06
3.12545e-06
3.16707e-06
3.20857e-06
3.25001e-06
3.29143e-06
3.33276e-06
3.37375e-06
3.41413e-06
3.45359e-06
3.4919e-06
3.52881e-06
3.56403e-06
3.59732e-06
3.62848e-06
3.65726e-06
3.68342e-06
3.70675e-06
3.72696e-06
3.7439e-06
3.7572e-06
3.76675e-06
3.77217e-06
3.77297e-06
3.76883e-06
3.75926e-06
3.74404e-06
3.72253e-06
3.69427e-06
3.65841e-06
3.61527e-06
2.95937e-06
2.91171e-06
2.86248e-06
2.81075e-06
2.75991e-06
2.70819e-06
2.65596e-06
2.60398e-06
2.55257e-06
2.50242e-06
2.45385e-06
2.40718e-06
2.36245e-06
2.32001e-06
2.27985e-06
2.24212e-06
2.20672e-06
2.17372e-06
2.14308e-06
2.11477e-06
2.08877e-06
2.065e-06
2.04344e-06
2.02405e-06
2.00675e-06
1.99149e-06
1.97819e-06
1.96679e-06
1.95722e-06
1.94942e-06
1.94333e-06
1.93887e-06
1.93601e-06
1.93468e-06
1.93486e-06
1.9365e-06
1.93955e-06
1.94397e-06
1.94971e-06
1.95673e-06
1.965e-06
1.97451e-06
1.98523e-06
1.99716e-06
2.01027e-06
2.02451e-06
2.03983e-06
2.05618e-06
2.07354e-06
2.09189e-06
2.11129e-06
2.13177e-06
2.15335e-06
2.17598e-06
2.19954e-06
2.22388e-06
2.2489e-06
2.2746e-06
2.30114e-06
2.32869e-06
2.35732e-06
2.38686e-06
2.41698e-06
2.44739e-06
2.47801e-06
2.50902e-06
2.54066e-06
2.57302e-06
2.60591e-06
2.63904e-06
2.67213e-06
2.70503e-06
2.73775e-06
2.77028e-06
2.80254e-06
2.83436e-06
2.86551e-06
2.8958e-06
2.925e-06
2.95297e-06
2.97954e-06
3.00457e-06
3.02784e-06
3.04917e-06
3.06844e-06
3.08549e-06
3.10017e-06
3.11241e-06
3.12184e-06
3.12867e-06
3.13227e-06
3.13255e-06
3.12892e-06
3.12106e-06
3.10873e-06
3.0915e-06
3.06863e-06
3.03862e-06
3.00245e-06
2.49412e-06
2.45286e-06
2.41052e-06
2.36554e-06
2.32212e-06
2.27804e-06
2.23386e-06
2.19014e-06
2.14706e-06
2.10532e-06
2.06507e-06
2.02665e-06
1.99005e-06
1.95554e-06
1.92309e-06
1.89279e-06
1.86451e-06
1.83831e-06
1.81414e-06
1.79198e-06
1.77175e-06
1.75342e-06
1.73694e-06
1.72227e-06
1.70935e-06
1.69812e-06
1.68852e-06
1.6805e-06
1.67397e-06
1.6689e-06
1.66523e-06
1.66292e-06
1.66192e-06
1.66219e-06
1.66369e-06
1.66638e-06
1.67023e-06
1.67519e-06
1.68123e-06
1.68831e-06
1.69641e-06
1.70551e-06
1.71559e-06
1.72664e-06
1.73864e-06
1.75155e-06
1.76534e-06
1.77995e-06
1.79536e-06
1.81156e-06
1.82857e-06
1.84641e-06
1.86509e-06
1.88457e-06
1.90478e-06
1.92559e-06
1.94693e-06
1.96877e-06
1.9912e-06
2.01432e-06
2.03818e-06
2.06268e-06
2.08758e-06
2.11268e-06
2.1379e-06
2.16331e-06
2.18906e-06
2.21519e-06
2.24159e-06
2.26808e-06
2.29443e-06
2.32053e-06
2.34634e-06
2.37183e-06
2.39692e-06
2.42148e-06
2.44532e-06
2.46829e-06
2.49032e-06
2.51133e-06
2.53116e-06
2.54971e-06
2.56683e-06
2.58236e-06
2.59626e-06
2.60844e-06
2.6188e-06
2.62738e-06
2.63379e-06
2.63841e-06
2.64054e-06
2.64027e-06
2.63694e-06
2.63026e-06
2.62001e-06
2.60582e-06
2.58698e-06
2.56158e-06
2.53091e-06
2.12594e-06
2.09027e-06
2.05392e-06
2.01473e-06
1.97743e-06
1.93977e-06
1.90223e-06
1.86532e-06
1.82908e-06
1.79419e-06
1.7607e-06
1.72896e-06
1.69886e-06
1.67069e-06
1.64435e-06
1.61995e-06
1.59733e-06
1.57652e-06
1.55746e-06
1.54012e-06
1.52443e-06
1.51035e-06
1.49783e-06
1.48685e-06
1.47733e-06
1.46924e-06
1.4625e-06
1.45709e-06
1.45292e-06
1.44998e-06
1.4482e-06
1.44755e-06
1.44798e-06
1.44947e-06
1.45197e-06
1.45546e-06
1.45989e-06
1.46524e-06
1.47148e-06
1.47858e-06
1.48651e-06
1.49525e-06
1.50478e-06
1.5151e-06
1.52619e-06
1.538e-06
1.55052e-06
1.56369e-06
1.5775e-06
1.59193e-06
1.60698e-06
1.62267e-06
1.63899e-06
1.65591e-06
1.67337e-06
1.69128e-06
1.70958e-06
1.72823e-06
1.74727e-06
1.76677e-06
1.78675e-06
1.80713e-06
1.82775e-06
1.84847e-06
1.86921e-06
1.88999e-06
1.9109e-06
1.93195e-06
1.95306e-06
1.97411e-06
1.99494e-06
2.01545e-06
2.03558e-06
2.0553e-06
2.07452e-06
2.09314e-06
2.11099e-06
2.12815e-06
2.14448e-06
2.15995e-06
2.17443e-06
2.18786e-06
2.20014e-06
2.21113e-06
2.22086e-06
2.22928e-06
2.23633e-06
2.24214e-06
2.24627e-06
2.24922e-06
2.25029e-06
2.24963e-06
2.24661e-06
2.24091e-06
2.23234e-06
2.22056e-06
2.20497e-06
2.18346e-06
2.1574e-06
1.82834e-06
1.79771e-06
1.76663e-06
1.73261e-06
1.70051e-06
1.66832e-06
1.63639e-06
1.6052e-06
1.57469e-06
1.54549e-06
1.5176e-06
1.49135e-06
1.46658e-06
1.44358e-06
1.42219e-06
1.40255e-06
1.38445e-06
1.36794e-06
1.35295e-06
1.33944e-06
1.32735e-06
1.31663e-06
1.30725e-06
1.29916e-06
1.29232e-06
1.28668e-06
1.28219e-06
1.2788e-06
1.27647e-06
1.27516e-06
1.27482e-06
1.27543e-06
1.27695e-06
1.27934e-06
1.28258e-06
1.28663e-06
1.29146e-06
1.29706e-06
1.30338e-06
1.3104e-06
1.31811e-06
1.32648e-06
1.33549e-06
1.34513e-06
1.35538e-06
1.36621e-06
1.3776e-06
1.3895e-06
1.40191e-06
1.41478e-06
1.42813e-06
1.44195e-06
1.45623e-06
1.47095e-06
1.48605e-06
1.50146e-06
1.51713e-06
1.53302e-06
1.54915e-06
1.56554e-06
1.58222e-06
1.5991e-06
1.61609e-06
1.63307e-06
1.64997e-06
1.6668e-06
1.6836e-06
1.70036e-06
1.71704e-06
1.73353e-06
1.74972e-06
1.76553e-06
1.78091e-06
1.79581e-06
1.81014e-06
1.82385e-06
1.83693e-06
1.84939e-06
1.86115e-06
1.8722e-06
1.88243e-06
1.89184e-06
1.90034e-06
1.90784e-06
1.91439e-06
1.91999e-06
1.92458e-06
1.92835e-06
1.93086e-06
1.93266e-06
1.93306e-06
1.93226e-06
1.92964e-06
1.92488e-06
1.91781e-06
1.9081e-06
1.89529e-06
1.8772e-06
1.85516e-06
1.58393e-06
1.5579e-06
1.53149e-06
1.5021e-06
1.47451e-06
1.44703e-06
1.41989e-06
1.39356e-06
1.36789e-06
1.34346e-06
1.32025e-06
1.29856e-06
1.2782e-06
1.25944e-06
1.2421e-06
1.22633e-06
1.2119e-06
1.19886e-06
1.18713e-06
1.17668e-06
1.16746e-06
1.15941e-06
1.1525e-06
1.1467e-06
1.14196e-06
1.13824e-06
1.13549e-06
1.13368e-06
1.13275e-06
1.13268e-06
1.13344e-06
1.13499e-06
1.13729e-06
1.14033e-06
1.14406e-06
1.14848e-06
1.15354e-06
1.15923e-06
1.16552e-06
1.17238e-06
1.1798e-06
1.18774e-06
1.19621e-06
1.20517e-06
1.21462e-06
1.22452e-06
1.23485e-06
1.24558e-06
1.25668e-06
1.26814e-06
1.27993e-06
1.29206e-06
1.30451e-06
1.31725e-06
1.33025e-06
1.34343e-06
1.35675e-06
1.37018e-06
1.38372e-06
1.39737e-06
1.41115e-06
1.42499e-06
1.43882e-06
1.45253e-06
1.46609e-06
1.47948e-06
1.49272e-06
1.50581e-06
1.51869e-06
1.5313e-06
1.54356e-06
1.5554e-06
1.56677e-06
1.57762e-06
1.58788e-06
1.59765e-06
1.60688e-06
1.61558e-06
1.6237e-06
1.63125e-06
1.63818e-06
1.64447e-06
1.6501e-06
1.65498e-06
1.65918e-06
1.66273e-06
1.66559e-06
1.66796e-06
1.66941e-06
1.67051e-06
1.67059e-06
1.66988e-06
1.66779e-06
1.66398e-06
1.65833e-06
1.65049e-06
1.64015e-06
1.62511e-06
1.60665e-06
1.38075e-06
1.35893e-06
1.33662e-06
1.31141e-06
1.28775e-06
1.26432e-06
1.24131e-06
1.21911e-06
1.19756e-06
1.17716e-06
1.15788e-06
1.13999e-06
1.12329e-06
1.10802e-06
1.09401e-06
1.08138e-06
1.06992e-06
1.05969e-06
1.05059e-06
1.0426e-06
1.03566e-06
1.02973e-06
1.02478e-06
1.02077e-06
1.01767e-06
1.01544e-06
1.01403e-06
1.01342e-06
1.01356e-06
1.01442e-06
1.01597e-06
1.01819e-06
1.02104e-06
1.02451e-06
1.02855e-06
1.03316e-06
1.0383e-06
1.04395e-06
1.05009e-06
1.05669e-06
1.06374e-06
1.07121e-06
1.07909e-06
1.08736e-06
1.096e-06
1.10498e-06
1.11429e-06
1.12389e-06
1.13375e-06
1.14386e-06
1.15419e-06
1.16475e-06
1.17551e-06
1.18644e-06
1.1975e-06
1.20865e-06
1.21983e-06
1.23103e-06
1.24222e-06
1.25342e-06
1.26462e-06
1.27576e-06
1.28678e-06
1.29761e-06
1.30822e-06
1.3186e-06
1.32875e-06
1.33866e-06
1.34829e-06
1.3576e-06
1.36651e-06
1.375e-06
1.383e-06
1.39047e-06
1.39749e-06
1.40409e-06
1.41024e-06
1.41597e-06
1.42125e-06
1.42611e-06
1.43052e-06
1.43448e-06
1.438e-06
1.44099e-06
1.44354e-06
1.44569e-06
1.44741e-06
1.4489e-06
1.44976e-06
1.45053e-06
1.4506e-06
1.45017e-06
1.44873e-06
1.4459e-06
1.44159e-06
1.4355e-06
1.42736e-06
1.4151e-06
1.39983e-06
1.21023e-06
1.19222e-06
1.17351e-06
1.15202e-06
1.1318e-06
1.11188e-06
1.09241e-06
1.07374e-06
1.05568e-06
1.03868e-06
1.02271e-06
1.00798e-06
9.94318e-07
9.81928e-07
9.70649e-07
9.60587e-07
9.51553e-07
9.43577e-07
9.3659e-07
9.30564e-07
9.25445e-07
9.2119e-07
9.17777e-07
9.15175e-07
9.1334e-07
9.12249e-07
9.1186e-07
9.12148e-07
9.13067e-07
9.14598e-07
9.1671e-07
9.1938e-07
9.22579e-07
9.26283e-07
9.30468e-07
9.35117e-07
9.40198e-07
9.45694e-07
9.51582e-07
9.57838e-07
9.64447e-07
9.71383e-07
9.78632e-07
9.86175e-07
9.93994e-07
1.00206e-06
1.01036e-06
1.01884e-06
1.02751e-06
1.03632e-06
1.04527e-06
1.05433e-06
1.0635e-06
1.07274e-06
1.08201e-06
1.09127e-06
1.10049e-06
1.10964e-06
1.1187e-06
1.12767e-06
1.13654e-06
1.14526e-06
1.1538e-06
1.16209e-06
1.17011e-06
1.17785e-06
1.18531e-06
1.19248e-06
1.19933e-06
1.20584e-06
1.21195e-06
1.21764e-06
1.22284e-06
1.22762e-06
1.23206e-06
1.23616e-06
1.23991e-06
1.24336e-06
1.24649e-06
1.24935e-06
1.25192e-06
1.25422e-06
1.25625e-06
1.25797e-06
1.25944e-06
1.26072e-06
1.26177e-06
1.2628e-06
1.26344e-06
1.26417e-06
1.26445e-06
1.26447e-06
1.26374e-06
1.26191e-06
1.2589e-06
1.25442e-06
1.24827e-06
1.2385e-06
1.22608e-06
1.066e-06
1.05141e-06
1.03582e-06
1.01764e-06
1.00042e-06
9.83532e-07
9.67115e-07
9.51441e-07
9.36351e-07
9.22213e-07
9.09008e-07
8.96916e-07
8.85774e-07
8.75755e-07
8.66714e-07
8.58741e-07
8.51665e-07
8.45512e-07
8.40216e-07
8.35751e-07
8.32069e-07
8.2913e-07
8.26913e-07
8.2539e-07
8.24523e-07
8.2429e-07
8.24655e-07
8.25593e-07
8.27063e-07
8.29047e-07
8.31519e-07
8.34456e-07
8.37831e-07
8.41622e-07
8.45807e-07
8.50368e-07
8.55276e-07
8.60514e-07
8.66061e-07
8.71893e-07
8.77993e-07
8.84338e-07
8.90913e-07
8.97698e-07
9.04674e-07
9.11816e-07
9.191e-07
9.26497e-07
9.33987e-07
9.41546e-07
9.49155e-07
9.568e-07
9.64459e-07
9.72105e-07
9.79706e-07
9.87222e-07
9.94626e-07
1.00189e-06
1.009e-06
1.01595e-06
1.02273e-06
1.02931e-06
1.03564e-06
1.0417e-06
1.04745e-06
1.05291e-06
1.05806e-06
1.0629e-06
1.06741e-06
1.07158e-06
1.07537e-06
1.07878e-06
1.08175e-06
1.08445e-06
1.08688e-06
1.08908e-06
1.09104e-06
1.0928e-06
1.09438e-06
1.09582e-06
1.09712e-06
1.0983e-06
1.09938e-06
1.10031e-06
1.10116e-06
1.10198e-06
1.10275e-06
1.10363e-06
1.10432e-06
1.10522e-06
1.10588e-06
1.10643e-06
1.10645e-06
1.10561e-06
1.10382e-06
1.10083e-06
1.09645e-06
1.0889e-06
1.07901e-06
9.43229e-07
9.31658e-07
9.18765e-07
9.03484e-07
8.88873e-07
8.74598e-07
8.60788e-07
8.47665e-07
8.35083e-07
8.23354e-07
8.12464e-07
8.0256e-07
7.935e-07
7.85426e-07
7.78213e-07
7.71933e-07
7.66435e-07
7.6174e-07
7.57788e-07
7.54555e-07
7.51996e-07
7.50076e-07
7.48774e-07
7.48066e-07
7.47918e-07
7.4831e-07
7.49209e-07
7.50592e-07
7.52422e-07
7.54682e-07
7.57348e-07
7.60398e-07
7.63806e-07
7.67554e-07
7.71619e-07
7.75983e-07
7.8062e-07
7.85513e-07
7.90639e-07
7.95979e-07
8.01513e-07
8.07219e-07
8.13082e-07
8.1908e-07
8.25197e-07
8.31406e-07
8.37686e-07
8.44006e-07
8.50351e-07
8.56694e-07
8.63019e-07
8.69308e-07
8.75542e-07
8.81695e-07
8.87739e-07
8.9364e-07
8.99375e-07
9.04919e-07
9.10264e-07
9.15401e-07
9.20321e-07
9.24999e-07
9.2941e-07
9.33525e-07
9.37335e-07
9.40838e-07
9.44038e-07
9.46938e-07
9.49524e-07
9.51794e-07
9.53728e-07
9.55317e-07
9.56618e-07
9.57743e-07
9.58696e-07
9.59508e-07
9.6018e-07
9.60773e-07
9.61303e-07
9.61816e-07
9.62314e-07
9.62827e-07
9.63367e-07
9.63898e-07
9.64477e-07
9.65149e-07
9.65899e-07
9.6687e-07
9.67786e-07
9.69005e-07
9.70131e-07
9.71269e-07
9.72042e-07
9.72136e-07
9.71472e-07
9.69823e-07
9.67009e-07
9.61436e-07
9.53748e-07
8.38131e-07
8.29186e-07
8.18602e-07
8.05842e-07
7.93495e-07
7.81461e-07
7.69874e-07
7.58908e-07
7.48439e-07
7.38727e-07
7.29764e-07
7.21671e-07
7.14323e-07
7.07838e-07
7.02107e-07
6.97191e-07
6.92955e-07
6.89415e-07
6.8652e-07
6.84246e-07
6.82551e-07
6.81404e-07
6.80786e-07
6.80676e-07
6.81041e-07
6.81865e-07
6.83116e-07
6.84775e-07
6.86805e-07
6.89193e-07
6.91914e-07
6.94949e-07
6.98273e-07
7.01868e-07
7.05713e-07
7.0979e-07
7.14074e-07
7.18547e-07
7.2319e-07
7.27981e-07
7.32902e-07
7.37932e-07
7.43054e-07
7.48248e-07
7.53496e-07
7.58774e-07
7.6406e-07
7.69328e-07
7.74561e-07
7.79734e-07
7.84833e-07
7.89839e-07
7.94735e-07
7.99499e-07
8.04106e-07
8.08527e-07
8.12747e-07
8.16742e-07
8.20509e-07
8.24039e-07
8.27329e-07
8.30361e-07
8.33119e-07
8.35586e-07
8.37759e-07
8.39642e-07
8.41245e-07
8.42574e-07
8.43625e-07
8.44407e-07
8.44912e-07
8.45154e-07
8.45252e-07
8.45254e-07
8.45172e-07
8.45044e-07
8.44875e-07
8.44727e-07
8.4462e-07
8.44599e-07
8.44668e-07
8.44856e-07
8.45174e-07
8.45589e-07
8.46151e-07
8.46895e-07
8.47811e-07
8.49016e-07
8.50273e-07
8.51886e-07
8.53516e-07
8.55242e-07
8.56727e-07
8.57685e-07
8.58039e-07
8.5758e-07
8.56129e-07
8.5227e-07
8.46495e-07
7.47704e-07
7.40997e-07
7.32375e-07
7.21786e-07
7.11394e-07
7.01279e-07
6.91579e-07
6.82431e-07
6.73735e-07
6.65704e-07
6.58338e-07
6.51734e-07
6.45786e-07
6.4059e-07
6.36053e-07
6.32223e-07
6.28986e-07
6.26351e-07
6.24274e-07
6.22732e-07
6.21686e-07
6.21109e-07
6.20984e-07
6.2129e-07
6.21998e-07
6.23093e-07
6.24547e-07
6.2634e-07
6.2844e-07
6.30832e-07
6.33494e-07
6.36409e-07
6.39551e-07
6.42904e-07
6.46447e-07
6.50163e-07
6.54028e-07
6.58025e-07
6.62134e-07
6.66335e-07
6.7061e-07
6.74939e-07
6.79304e-07
6.83687e-07
6.8807e-07
6.9243e-07
6.96747e-07
7.00996e-07
7.05163e-07
7.09226e-07
7.13169e-07
7.16977e-07
7.20636e-07
7.24126e-07
7.27426e-07
7.30515e-07
7.33381e-07
7.36007e-07
7.38392e-07
7.40532e-07
7.42427e-07
7.44067e-07
7.45444e-07
7.46552e-07
7.47393e-07
7.47979e-07
7.4832e-07
7.48433e-07
7.48317e-07
7.47992e-07
7.47455e-07
7.46791e-07
7.46075e-07
7.4534e-07
7.44605e-07
7.43907e-07
7.43256e-07
7.42711e-07
7.42291e-07
7.42039e-07
7.41958e-07
7.42074e-07
7.42395e-07
7.42892e-07
7.43603e-07
7.44558e-07
7.45748e-07
7.47266e-07
7.48915e-07
7.50948e-07
7.53076e-07
7.55355e-07
7.57488e-07
7.59216e-07
7.60465e-07
7.61037e-07
7.60752e-07
7.5836e-07
7.5422e-07
6.69528e-07
6.64689e-07
6.5773e-07
6.48992e-07
6.40281e-07
6.31802e-07
6.23696e-07
6.16073e-07
6.08854e-07
6.02216e-07
5.96165e-07
5.90777e-07
5.85964e-07
5.81804e-07
5.78218e-07
5.75246e-07
5.72786e-07
5.70848e-07
5.6939e-07
5.68391e-07
5.67817e-07
5.67642e-07
5.67849e-07
5.68422e-07
5.69333e-07
5.70568e-07
5.72101e-07
5.73912e-07
5.75973e-07
5.7827e-07
5.8078e-07
5.83488e-07
5.8637e-07
5.8941e-07
5.92589e-07
5.95888e-07
5.99285e-07
6.02764e-07
6.06305e-07
6.0989e-07
6.13501e-07
6.17118e-07
6.20727e-07
6.24306e-07
6.27843e-07
6.31313e-07
6.34701e-07
6.37982e-07
6.41145e-07
6.4417e-07
6.47045e-07
6.49756e-07
6.52292e-07
6.54637e-07
6.56776e-07
6.58693e-07
6.6038e-07
6.61827e-07
6.63037e-07
6.64009e-07
6.64747e-07
6.6525e-07
6.65517e-07
6.65549e-07
6.65355e-07
6.64949e-07
6.6435e-07
6.63573e-07
6.62629e-07
6.61543e-07
6.60325e-07
6.59109e-07
6.57907e-07
6.56754e-07
6.55674e-07
6.54702e-07
6.53848e-07
6.53166e-07
6.52674e-07
6.52409e-07
6.52373e-07
6.52587e-07
6.53057e-07
6.53756e-07
6.54713e-07
6.55952e-07
6.57462e-07
6.59321e-07
6.61365e-07
6.638e-07
6.66386e-07
6.69159e-07
6.71858e-07
6.74248e-07
6.76259e-07
6.77703e-07
6.78394e-07
6.77239e-07
6.74477e-07
6.01636e-07
5.98319e-07
5.9276e-07
5.85591e-07
5.78317e-07
5.71224e-07
5.64457e-07
5.58106e-07
5.52112e-07
5.46621e-07
5.41643e-07
5.3724e-07
5.33339e-07
5.30003e-07
5.27165e-07
5.24857e-07
5.22991e-07
5.21575e-07
5.20571e-07
5.1996e-07
5.19709e-07
5.19797e-07
5.20207e-07
5.20924e-07
5.21923e-07
5.23189e-07
5.24699e-07
5.26436e-07
5.28372e-07
5.30493e-07
5.32779e-07
5.35214e-07
5.37777e-07
5.40451e-07
5.43218e-07
5.46061e-07
5.48958e-07
5.51894e-07
5.54851e-07
5.57811e-07
5.60757e-07
5.63671e-07
5.66538e-07
5.69341e-07
5.72066e-07
5.74693e-07
5.77207e-07
5.79588e-07
5.81826e-07
5.83905e-07
5.85815e-07
5.87546e-07
5.89089e-07
5.90434e-07
5.9157e-07
5.92486e-07
5.93181e-07
5.93649e-07
5.93895e-07
5.93925e-07
5.93746e-07
5.93363e-07
5.92781e-07
5.92008e-07
5.91056e-07
5.89945e-07
5.88695e-07
5.87326e-07
5.85852e-07
5.84302e-07
5.82725e-07
5.81228e-07
5.79802e-07
5.78484e-07
5.77295e-07
5.76269e-07
5.75416e-07
5.7478e-07
5.7438e-07
5.74244e-07
5.74375e-07
5.74789e-07
5.75487e-07
5.76447e-07
5.77689e-07
5.79231e-07
5.81064e-07
5.83249e-07
5.85655e-07
5.88449e-07
5.91431e-07
5.94621e-07
5.97791e-07
6.0073e-07
6.03369e-07
6.0553e-07
6.07021e-07
6.06889e-07
6.05271e-07
5.42412e-07
5.40303e-07
5.3592e-07
5.30067e-07
5.24015e-07
5.18092e-07
5.12443e-07
5.07146e-07
5.0216e-07
4.97604e-07
4.93496e-07
4.89883e-07
4.86705e-07
4.84013e-07
4.81754e-07
4.79949e-07
4.78525e-07
4.77487e-07
4.768e-07
4.76448e-07
4.76401e-07
4.76637e-07
4.77144e-07
4.77905e-07
4.78898e-07
4.8011e-07
4.81519e-07
4.83107e-07
4.84851e-07
4.86736e-07
4.88743e-07
4.90858e-07
4.9306e-07
4.95333e-07
4.9766e-07
5.00025e-07
5.02409e-07
5.04795e-07
5.07168e-07
5.0951e-07
5.11808e-07
5.14044e-07
5.16204e-07
5.18274e-07
5.20241e-07
5.22088e-07
5.23803e-07
5.2537e-07
5.26779e-07
5.2802e-07
5.29085e-07
5.29967e-07
5.30662e-07
5.31163e-07
5.31464e-07
5.31561e-07
5.31454e-07
5.31145e-07
5.3064e-07
5.2995e-07
5.29085e-07
5.28055e-07
5.2687e-07
5.25541e-07
5.24086e-07
5.22524e-07
5.20879e-07
5.19171e-07
5.17419e-07
5.15649e-07
5.13965e-07
5.12395e-07
5.10944e-07
5.09644e-07
5.08515e-07
5.07587e-07
5.06867e-07
5.06395e-07
5.06183e-07
5.06258e-07
5.06617e-07
5.07275e-07
5.0823e-07
5.09462e-07
5.10984e-07
5.12812e-07
5.14937e-07
5.17407e-07
5.2012e-07
5.23209e-07
5.26512e-07
5.30034e-07
5.33574e-07
5.36949e-07
5.40086e-07
5.42817e-07
5.44947e-07
5.45644e-07
5.44961e-07
4.90527e-07
4.89351e-07
4.85949e-07
4.81194e-07
4.76173e-07
4.7123e-07
4.66506e-07
4.62076e-07
4.57911e-07
4.54113e-07
4.507e-07
4.47712e-07
4.45099e-07
4.42904e-07
4.41081e-07
4.39646e-07
4.38538e-07
4.37759e-07
4.37279e-07
4.37081e-07
4.37139e-07
4.37433e-07
4.37951e-07
4.38678e-07
4.39594e-07
4.40685e-07
4.41932e-07
4.43318e-07
4.44821e-07
4.46427e-07
4.4812e-07
4.49884e-07
4.51701e-07
4.53556e-07
4.55433e-07
4.57317e-07
4.59189e-07
4.61037e-07
4.62844e-07
4.64596e-07
4.6628e-07
4.6788e-07
4.69386e-07
4.70784e-07
4.72064e-07
4.73212e-07
4.74219e-07
4.75071e-07
4.75764e-07
4.76288e-07
4.76641e-07
4.76818e-07
4.76818e-07
4.76639e-07
4.76278e-07
4.75737e-07
4.75019e-07
4.74129e-07
4.73079e-07
4.71879e-07
4.70543e-07
4.69085e-07
4.67517e-07
4.65853e-07
4.64113e-07
4.62317e-07
4.60488e-07
4.58649e-07
4.56819e-07
4.55039e-07
4.53405e-07
4.51913e-07
4.50572e-07
4.49413e-07
4.48451e-07
4.47712e-07
4.47202e-07
4.46952e-07
4.46974e-07
4.47288e-07
4.47893e-07
4.48797e-07
4.49998e-07
4.51479e-07
4.5325e-07
4.55321e-07
4.57687e-07
4.60383e-07
4.63336e-07
4.66648e-07
4.7019e-07
4.73954e-07
4.77769e-07
4.81467e-07
4.84981e-07
4.88147e-07
4.90769e-07
4.92121e-07
4.92189e-07
4.44879e-07
4.44405e-07
4.41812e-07
4.37966e-07
4.33808e-07
4.29678e-07
4.25716e-07
4.21992e-07
4.1849e-07
4.15297e-07
4.12434e-07
4.09932e-07
4.07754e-07
4.05931e-07
4.04428e-07
4.03255e-07
4.0236e-07
4.01745e-07
4.01382e-07
4.01255e-07
4.01341e-07
4.01622e-07
4.02086e-07
4.02719e-07
4.03503e-07
4.04426e-07
4.05469e-07
4.06617e-07
4.07848e-07
4.09151e-07
4.1051e-07
4.11911e-07
4.13336e-07
4.14773e-07
4.16206e-07
4.17622e-07
4.19004e-07
4.2034e-07
4.21618e-07
4.22822e-07
4.23944e-07
4.24969e-07
4.25888e-07
4.26691e-07
4.2737e-07
4.27915e-07
4.28317e-07
4.28569e-07
4.28667e-07
4.28606e-07
4.28386e-07
4.28005e-07
4.27467e-07
4.2677e-07
4.25919e-07
4.24915e-07
4.23768e-07
4.22483e-07
4.21074e-07
4.19554e-07
4.17938e-07
4.16241e-07
4.14478e-07
4.12663e-07
4.10817e-07
4.0896e-07
4.07113e-07
4.05297e-07
4.0353e-07
4.01891e-07
4.00412e-07
3.99094e-07
3.97947e-07
3.96997e-07
3.96259e-07
3.9575e-07
3.95478e-07
3.95468e-07
3.95729e-07
3.96276e-07
3.97109e-07
3.98233e-07
3.99646e-07
4.01334e-07
4.03302e-07
4.0556e-07
4.08103e-07
4.10961e-07
4.1408e-07
4.17541e-07
4.21239e-07
4.25161e-07
4.29156e-07
4.33076e-07
4.36854e-07
4.40333e-07
4.43319e-07
4.45173e-07
4.45829e-07
4.0456e-07
4.04598e-07
4.02667e-07
3.99566e-07
3.96122e-07
3.9266e-07
3.89317e-07
3.86162e-07
3.83189e-07
3.80474e-07
3.78038e-07
3.75909e-07
3.74055e-07
3.72504e-07
3.71226e-07
3.70227e-07
3.69464e-07
3.68937e-07
3.68621e-07
3.68502e-07
3.68557e-07
3.68772e-07
3.69135e-07
3.69633e-07
3.70249e-07
3.70972e-07
3.71786e-07
3.72676e-07
3.73622e-07
3.74613e-07
3.75636e-07
3.76677e-07
3.77721e-07
3.78756e-07
3.79768e-07
3.80745e-07
3.81674e-07
3.82542e-07
3.8334e-07
3.84056e-07
3.84681e-07
3.85203e-07
3.85618e-07
3.85915e-07
3.86091e-07
3.86136e-07
3.86047e-07
3.85818e-07
3.85449e-07
3.84936e-07
3.84283e-07
3.83492e-07
3.82566e-07
3.81509e-07
3.80326e-07
3.79022e-07
3.77608e-07
3.76092e-07
3.74488e-07
3.72811e-07
3.71074e-07
3.69294e-07
3.67485e-07
3.65664e-07
3.63847e-07
3.62056e-07
3.60309e-07
3.58628e-07
3.57031e-07
3.55604e-07
3.5434e-07
3.53245e-07
3.52331e-07
3.51618e-07
3.51118e-07
3.50847e-07
3.50808e-07
3.51024e-07
3.51501e-07
3.52253e-07
3.53276e-07
3.54578e-07
3.56154e-07
3.57994e-07
3.60102e-07
3.62485e-07
3.65139e-07
3.68092e-07
3.71303e-07
3.7484e-07
3.78619e-07
3.82619e-07
3.86709e-07
3.90757e-07
3.94699e-07
3.98384e-07
4.01618e-07
4.03842e-07
4.04948e-07
3.68812e-07
3.69214e-07
3.67814e-07
3.65319e-07
3.62457e-07
3.59539e-07
3.56693e-07
3.53992e-07
3.51435e-07
3.49092e-07
3.46982e-07
3.45132e-07
3.43515e-07
3.42155e-07
3.41026e-07
3.40133e-07
3.39438e-07
3.38941e-07
3.3862e-07
3.38462e-07
3.38446e-07
3.38558e-07
3.38789e-07
3.39126e-07
3.39555e-07
3.40064e-07
3.40639e-07
3.41266e-07
3.41928e-07
3.42615e-07
3.43315e-07
3.44015e-07
3.44702e-07
3.45365e-07
3.45994e-07
3.46576e-07
3.47101e-07
3.47558e-07
3.4794e-07
3.48236e-07
3.48441e-07
3.48545e-07
3.48544e-07
3.48433e-07
3.48208e-07
3.47863e-07
3.47397e-07
3.46808e-07
3.46096e-07
3.45262e-07
3.4431e-07
3.43244e-07
3.4207e-07
3.40793e-07
3.39419e-07
3.37956e-07
3.36416e-07
3.34806e-07
3.33141e-07
3.31435e-07
3.29702e-07
3.27957e-07
3.26215e-07
3.24489e-07
3.22797e-07
3.21157e-07
3.19586e-07
3.18103e-07
3.1674e-07
3.15552e-07
3.14526e-07
3.1367e-07
3.12994e-07
3.12515e-07
3.12242e-07
3.12188e-07
3.12358e-07
3.12767e-07
3.13423e-07
3.14335e-07
3.15503e-07
3.16931e-07
3.18617e-07
3.20552e-07
3.22739e-07
3.25185e-07
3.27888e-07
3.30871e-07
3.34109e-07
3.37655e-07
3.41443e-07
3.45449e-07
3.49558e-07
3.53653e-07
3.5767e-07
3.61467e-07
3.64852e-07
3.67331e-07
3.68767e-07
3.37009e-07
3.37662e-07
3.36679e-07
3.3467e-07
3.32279e-07
3.29795e-07
3.27345e-07
3.25e-07
3.22767e-07
3.20707e-07
3.18842e-07
3.17195e-07
3.15746e-07
3.14513e-07
3.13476e-07
3.12637e-07
3.11964e-07
3.11456e-07
3.11093e-07
3.10865e-07
3.10751e-07
3.1074e-07
3.10823e-07
3.10989e-07
3.11224e-07
3.11518e-07
3.11859e-07
3.12233e-07
3.12627e-07
3.1303e-07
3.13432e-07
3.13823e-07
3.1419e-07
3.14524e-07
3.14817e-07
3.15059e-07
3.1524e-07
3.15352e-07
3.15388e-07
3.15343e-07
3.1521e-07
3.14984e-07
3.14662e-07
3.1424e-07
3.13716e-07
3.13089e-07
3.12358e-07
3.11522e-07
3.10585e-07
3.09548e-07
3.08417e-07
3.07197e-07
3.05894e-07
3.04517e-07
3.0307e-07
3.01564e-07
3.00007e-07
2.9841e-07
2.96786e-07
2.95147e-07
2.93508e-07
2.91881e-07
2.90279e-07
2.88715e-07
2.87206e-07
2.85765e-07
2.84408e-07
2.83149e-07
2.82044e-07
2.81097e-07
2.80305e-07
2.79678e-07
2.79223e-07
2.78955e-07
2.78881e-07
2.79012e-07
2.79351e-07
2.79913e-07
2.80703e-07
2.81729e-07
2.82991e-07
2.84494e-07
2.86236e-07
2.88211e-07
2.90422e-07
2.92874e-07
2.95568e-07
2.98523e-07
3.01728e-07
3.05224e-07
3.08959e-07
3.12908e-07
3.1697e-07
3.21041e-07
3.25057e-07
3.28886e-07
3.32339e-07
3.34976e-07
3.3664e-07
3.08632e-07
3.09449e-07
3.08787e-07
3.07163e-07
3.05145e-07
3.03005e-07
3.00865e-07
2.98796e-07
2.96811e-07
2.94964e-07
2.93279e-07
2.91776e-07
2.90441e-07
2.89288e-07
2.883e-07
2.87478e-07
2.86795e-07
2.86249e-07
2.85823e-07
2.85507e-07
2.85283e-07
2.85142e-07
2.85074e-07
2.8507e-07
2.85118e-07
2.85209e-07
2.85332e-07
2.85475e-07
2.85626e-07
2.85777e-07
2.85918e-07
2.8604e-07
2.86134e-07
2.86191e-07
2.86205e-07
2.86167e-07
2.86069e-07
2.85907e-07
2.85674e-07
2.85366e-07
2.8498e-07
2.84511e-07
2.83958e-07
2.83319e-07
2.82595e-07
2.81784e-07
2.80888e-07
2.79907e-07
2.78847e-07
2.77709e-07
2.765e-07
2.75226e-07
2.73894e-07
2.72511e-07
2.71083e-07
2.69619e-07
2.68129e-07
2.66622e-07
2.65109e-07
2.63601e-07
2.62112e-07
2.60653e-07
2.59234e-07
2.57868e-07
2.56567e-07
2.55345e-07
2.54215e-07
2.53193e-07
2.52326e-07
2.51603e-07
2.51026e-07