/*--------------------------------*- C++ -*----------------------------------*\
| =========                 |                                                 |
| \\      /  F ield         | OpenFOAM: The Open Source CFD Toolbox           |
|  \\    /   O peration     | Version:  2306                                  |
|   \\  /    A nd           | Website:  www.openfoam.com                      |
|    \\/     M anipulation  |                                                 |
\*---------------------------------------------------------------------------*/
// * * * * * * * * * * * * * * * * * * * * * * * * * * * * * * * * * * * * * //
FoamFile
{
    version         2;
    format          ascii;
    class           volScalarField;
    location        "2.47";
    object          k;
}

dimensions      [ 0 2 -2 0 0 0 0 ];

internalField   nonuniform List<scalar> 
14751
(
4.31671e-05
4.27743e-05
4.23964e-05
4.20519e-05
4.16453e-05
4.12596e-05
4.08622e-05
4.04669e-05
4.00831e-05
3.97028e-05
3.93365e-05
3.8979e-05
3.86433e-05
3.83186e-05
3.80145e-05
3.77233e-05
3.74555e-05
3.72042e-05
3.69741e-05
3.67623e-05
3.65707e-05
3.63992e-05
3.62471e-05
3.61143e-05
3.60006e-05
3.5905e-05
3.58273e-05
3.57665e-05
3.57228e-05
3.56948e-05
3.56824e-05
3.56847e-05
3.57018e-05
3.57327e-05
3.57773e-05
3.58346e-05
3.59039e-05
3.59841e-05
3.60749e-05
3.61763e-05
3.62884e-05
3.64116e-05
3.65458e-05
3.66904e-05
3.68435e-05
3.70034e-05
3.71687e-05
3.73394e-05
3.75169e-05
3.77042e-05
3.79033e-05
3.81143e-05
3.83346e-05
3.85583e-05
3.87795e-05
3.89953e-05
3.92097e-05
3.94332e-05
3.96761e-05
3.99405e-05
4.02157e-05
4.04842e-05
4.07332e-05
4.09656e-05
4.11976e-05
4.14476e-05
4.1721e-05
4.20075e-05
4.22891e-05
4.25537e-05
4.28017e-05
4.30422e-05
4.32839e-05
4.35283e-05
4.37714e-05
4.40078e-05
4.42335e-05
4.44456e-05
4.46441e-05
4.48271e-05
4.49953e-05
4.51452e-05
4.52768e-05
4.53909e-05
4.54803e-05
4.55503e-05
4.55903e-05
4.5606e-05
4.55959e-05
4.55463e-05
4.54743e-05
4.53556e-05
4.52117e-05
4.50289e-05
4.48149e-05
4.45393e-05
4.42252e-05
4.39055e-05
4.35424e-05
3.94446e-05
3.91317e-05
3.88236e-05
3.85407e-05
3.82247e-05
3.7918e-05
3.76079e-05
3.73e-05
3.70015e-05
3.67081e-05
3.64263e-05
3.61531e-05
3.58963e-05
3.565e-05
3.54199e-05
3.52014e-05
3.50008e-05
3.48142e-05
3.46441e-05
3.44892e-05
3.43503e-05
3.42273e-05
3.41199e-05
3.40279e-05
3.39511e-05
3.38887e-05
3.38406e-05
3.3806e-05
3.37849e-05
3.37765e-05
3.37804e-05
3.37961e-05
3.38236e-05
3.38621e-05
3.39115e-05
3.39709e-05
3.404e-05
3.41178e-05
3.4204e-05
3.42983e-05
3.4401e-05
3.45123e-05
3.46322e-05
3.47602e-05
3.4895e-05
3.50352e-05
3.51795e-05
3.53278e-05
3.54808e-05
3.56406e-05
3.58089e-05
3.59861e-05
3.61705e-05
3.63578e-05
3.65433e-05
3.67241e-05
3.69024e-05
3.70855e-05
3.72815e-05
3.74929e-05
3.77131e-05
3.79292e-05
3.81305e-05
3.83174e-05
3.85008e-05
3.86944e-05
3.89037e-05
3.91225e-05
3.9338e-05
3.95403e-05
3.97285e-05
3.99084e-05
4.00864e-05
4.02643e-05
4.04395e-05
4.06081e-05
4.07672e-05
4.09144e-05
4.10495e-05
4.11713e-05
4.12799e-05
4.13733e-05
4.14512e-05
4.15142e-05
4.15586e-05
4.15861e-05
4.15922e-05
4.15776e-05
4.15444e-05
4.14822e-05
4.14013e-05
4.12881e-05
4.11535e-05
4.09921e-05
4.08057e-05
4.05791e-05
4.03193e-05
4.00522e-05
3.97555e-05
3.73665e-05
3.70941e-05
3.68206e-05
3.65688e-05
3.63018e-05
3.60377e-05
3.57759e-05
3.55167e-05
3.52665e-05
3.50231e-05
3.47904e-05
3.45668e-05
3.43571e-05
3.41582e-05
3.39734e-05
3.38001e-05
3.36415e-05
3.34961e-05
3.33647e-05
3.32469e-05
3.31427e-05
3.30523e-05
3.29752e-05
3.29113e-05
3.28603e-05
3.28216e-05
3.27951e-05
3.27801e-05
3.27765e-05
3.27836e-05
3.28011e-05
3.28287e-05
3.2866e-05
3.29127e-05
3.29685e-05
3.30328e-05
3.31051e-05
3.31849e-05
3.32715e-05
3.3365e-05
3.34653e-05
3.35727e-05
3.36871e-05
3.38082e-05
3.3935e-05
3.40663e-05
3.42011e-05
3.4339e-05
3.44804e-05
3.46268e-05
3.47795e-05
3.49389e-05
3.51041e-05
3.52719e-05
3.54385e-05
3.56012e-05
3.57609e-05
3.59229e-05
3.60931e-05
3.62745e-05
3.64628e-05
3.66485e-05
3.6823e-05
3.69851e-05
3.7142e-05
3.73039e-05
3.74757e-05
3.76541e-05
3.78297e-05
3.79948e-05
3.81475e-05
3.82917e-05
3.84317e-05
3.85692e-05
3.87028e-05
3.88294e-05
3.89468e-05
3.90533e-05
3.91483e-05
3.92308e-05
3.93009e-05
3.93573e-05
3.93995e-05
3.94281e-05
3.94412e-05
3.94389e-05
3.94197e-05
3.93821e-05
3.93299e-05
3.9255e-05
3.91639e-05
3.90489e-05
3.89148e-05
3.87608e-05
3.8586e-05
3.83833e-05
3.81502e-05
3.79085e-05
3.76452e-05
3.60458e-05
3.57965e-05
3.55449e-05
3.53135e-05
3.5078e-05
3.48431e-05
3.46141e-05
3.4389e-05
3.41732e-05
3.39657e-05
3.37689e-05
3.3582e-05
3.34079e-05
3.32451e-05
3.30953e-05
3.29571e-05
3.28321e-05
3.27197e-05
3.26199e-05
3.25326e-05
3.24576e-05
3.23949e-05
3.23441e-05
3.2305e-05
3.22773e-05
3.22605e-05
3.22543e-05
3.22582e-05
3.2272e-05
3.22952e-05
3.23274e-05
3.23683e-05
3.24176e-05
3.24749e-05
3.254e-05
3.26124e-05
3.26916e-05
3.27772e-05
3.28687e-05
3.2966e-05
3.3069e-05
3.31778e-05
3.32924e-05
3.34127e-05
3.35377e-05
3.36665e-05
3.37981e-05
3.39322e-05
3.40689e-05
3.42091e-05
3.4354e-05
3.4504e-05
3.46583e-05
3.48148e-05
3.49702e-05
3.5122e-05
3.52705e-05
3.54195e-05
3.55735e-05
3.57352e-05
3.59018e-05
3.60663e-05
3.62216e-05
3.63659e-05
3.65038e-05
3.66431e-05
3.67881e-05
3.69366e-05
3.70822e-05
3.72184e-05
3.73433e-05
3.74592e-05
3.75691e-05
3.76746e-05
3.77747e-05
3.78671e-05
3.79503e-05
3.80226e-05
3.80835e-05
3.81322e-05
3.81687e-05
3.81923e-05
3.82024e-05
3.81995e-05
3.81831e-05
3.81526e-05
3.81083e-05
3.80476e-05
3.79751e-05
3.78844e-05
3.77797e-05
3.76567e-05
3.75171e-05
3.73623e-05
3.71903e-05
3.69979e-05
3.67781e-05
3.65495e-05
3.63048e-05
3.50785e-05
3.4845e-05
3.46108e-05
3.43965e-05
3.41849e-05
3.3974e-05
3.37713e-05
3.35741e-05
3.33869e-05
3.32094e-05
3.3043e-05
3.28872e-05
3.27438e-05
3.26122e-05
3.24931e-05
3.23857e-05
3.22906e-05
3.22075e-05
3.21363e-05
3.20768e-05
3.20285e-05
3.19915e-05
3.19654e-05
3.19498e-05
3.19444e-05
3.19488e-05
3.19626e-05
3.19854e-05
3.20169e-05
3.20566e-05
3.21042e-05
3.21593e-05
3.22217e-05
3.2291e-05
3.23669e-05
3.24491e-05
3.25371e-05
3.26304e-05
3.27289e-05
3.28322e-05
3.29402e-05
3.3053e-05
3.31706e-05
3.32927e-05
3.34187e-05
3.35477e-05
3.36788e-05
3.38116e-05
3.39462e-05
3.40831e-05
3.42232e-05
3.4367e-05
3.45138e-05
3.46619e-05
3.48086e-05
3.49517e-05
3.50911e-05
3.52294e-05
3.53703e-05
3.55161e-05
3.56649e-05
3.58111e-05
3.5949e-05
3.60767e-05
3.61972e-05
3.63163e-05
3.64378e-05
3.65602e-05
3.66788e-05
3.67885e-05
3.68872e-05
3.69764e-05
3.70584e-05
3.71342e-05
3.72034e-05
3.72641e-05
3.73151e-05
3.73553e-05
3.73839e-05
3.74007e-05
3.74053e-05
3.73975e-05
3.73771e-05
3.73448e-05
3.73004e-05
3.72436e-05
3.71753e-05
3.70932e-05
3.70014e-05
3.68953e-05
3.67774e-05
3.66455e-05
3.64996e-05
3.63422e-05
3.61709e-05
3.59839e-05
3.5773e-05
3.55536e-05
3.53222e-05
3.42814e-05
3.40613e-05
3.38438e-05
3.3646e-05
3.3455e-05
3.32659e-05
3.30867e-05
3.29146e-05
3.27534e-05
3.2603e-05
3.24643e-05
3.23367e-05
3.22215e-05
3.21184e-05
3.20275e-05
3.19483e-05
3.18807e-05
3.18248e-05
3.178e-05
3.17462e-05
3.17229e-05
3.17099e-05
3.1707e-05
3.17135e-05
3.17294e-05
3.1754e-05
3.1787e-05
3.18279e-05
3.18765e-05
3.19323e-05
3.1995e-05
3.20641e-05
3.21394e-05
3.22207e-05
3.23076e-05
3.23997e-05
3.24967e-05
3.25983e-05
3.27042e-05
3.28139e-05
3.29274e-05
3.30447e-05
3.31658e-05
3.32903e-05
3.34177e-05
3.35473e-05
3.36783e-05
3.38102e-05
3.39429e-05
3.40768e-05
3.42126e-05
3.43508e-05
3.44906e-05
3.46308e-05
3.47688e-05
3.4903e-05
3.50328e-05
3.51604e-05
3.52886e-05
3.54192e-05
3.55507e-05
3.5679e-05
3.57991e-05
3.59093e-05
3.60117e-05
3.61107e-05
3.62093e-05
3.63066e-05
3.6399e-05
3.64823e-05
3.6555e-05
3.66176e-05
3.6672e-05
3.6719e-05
3.67582e-05
3.67883e-05
3.68085e-05
3.68177e-05
3.68155e-05
3.68016e-05
3.67762e-05
3.67394e-05
3.66912e-05
3.66323e-05
3.65632e-05
3.64835e-05
3.63944e-05
3.62942e-05
3.61864e-05
3.60677e-05
3.59396e-05
3.5801e-05
3.56513e-05
3.54928e-05
3.53233e-05
3.51416e-05
3.49395e-05
3.47293e-05
3.45105e-05
3.35713e-05
3.33648e-05
3.31649e-05
3.29834e-05
3.2812e-05
3.26437e-05
3.24869e-05
3.23384e-05
3.22018e-05
3.20769e-05
3.1964e-05
3.18628e-05
3.17741e-05
3.16976e-05
3.1633e-05
3.15799e-05
3.15378e-05
3.1507e-05
3.14867e-05
3.14766e-05
3.14763e-05
3.14856e-05
3.15041e-05
3.15311e-05
3.15666e-05
3.16099e-05
3.16606e-05
3.17183e-05
3.17827e-05
3.18533e-05
3.19299e-05
3.2012e-05
3.20993e-05
3.21916e-05
3.22887e-05
3.239e-05
3.24954e-05
3.26045e-05
3.27169e-05
3.28323e-05
3.29506e-05
3.30717e-05
3.31955e-05
3.33217e-05
3.345e-05
3.35794e-05
3.37094e-05
3.38395e-05
3.39693e-05
3.40994e-05
3.42302e-05
3.43618e-05
3.4494e-05
3.46252e-05
3.47536e-05
3.48775e-05
3.49965e-05
3.51121e-05
3.52266e-05
3.53413e-05
3.54552e-05
3.55647e-05
3.5666e-05
3.57574e-05
3.58405e-05
3.59185e-05
3.59939e-05
3.60661e-05
3.61323e-05
3.61893e-05
3.62356e-05
3.62716e-05
3.62986e-05
3.63174e-05
3.63276e-05
3.63283e-05
3.63189e-05
3.62985e-05
3.62672e-05
3.62253e-05
3.61729e-05
3.61104e-05
3.6038e-05
3.59566e-05
3.58667e-05
3.57683e-05
3.56628e-05
3.5549e-05
3.54295e-05
3.53023e-05
3.51681e-05
3.50265e-05
3.48765e-05
3.47201e-05
3.45551e-05
3.43804e-05
3.4189e-05
3.39899e-05
3.37848e-05
3.29108e-05
3.27194e-05
3.25383e-05
3.23734e-05
3.22211e-05
3.20736e-05
3.19385e-05
3.1813e-05
3.16999e-05
3.15991e-05
3.15106e-05
3.14342e-05
3.13703e-05
3.13184e-05
3.12783e-05
3.12492e-05
3.12307e-05
3.12229e-05
3.12249e-05
3.12365e-05
3.12572e-05
3.12866e-05
3.13244e-05
3.137e-05
3.14231e-05
3.14831e-05
3.15498e-05
3.16224e-05
3.17009e-05
3.17847e-05
3.18736e-05
3.1967e-05
3.20649e-05
3.21669e-05
3.22726e-05
3.23819e-05
3.24943e-05
3.26094e-05
3.2727e-05
3.28467e-05
3.29683e-05
3.30918e-05
3.3217e-05
3.33436e-05
3.34712e-05
3.35991e-05
3.37266e-05
3.38533e-05
3.39789e-05
3.41036e-05
3.42278e-05
3.43516e-05
3.44746e-05
3.45955e-05
3.47127e-05
3.48248e-05
3.49312e-05
3.50333e-05
3.51326e-05
3.52304e-05
3.53256e-05
3.54154e-05
3.54966e-05
3.55679e-05
3.56304e-05
3.56865e-05
3.57383e-05
3.57853e-05
3.58255e-05
3.58561e-05
3.58761e-05
3.58857e-05
3.5886e-05
3.58774e-05
3.58598e-05
3.58325e-05
3.57951e-05
3.57477e-05
3.56905e-05
3.56238e-05
3.55482e-05
3.54641e-05
3.53718e-05
3.52722e-05
3.51663e-05
3.5054e-05
3.49368e-05
3.48141e-05
3.46876e-05
3.45565e-05
3.44207e-05
3.42802e-05
3.41338e-05
3.39829e-05
3.38256e-05
3.36605e-05
3.34822e-05
3.32967e-05
3.31071e-05
3.22839e-05
3.21093e-05
3.19483e-05
3.18004e-05
3.16674e-05
3.15405e-05
3.14268e-05
3.13236e-05
3.1233e-05
3.11551e-05
3.10896e-05
3.10363e-05
3.09952e-05
3.09661e-05
3.09482e-05
3.09409e-05
3.09438e-05
3.09567e-05
3.09789e-05
3.10099e-05
3.10493e-05
3.10966e-05
3.11516e-05
3.12135e-05
3.12821e-05
3.13567e-05
3.14371e-05
3.15227e-05
3.16133e-05
3.17084e-05
3.18076e-05
3.19107e-05
3.20173e-05
3.21271e-05
3.22398e-05
3.23551e-05
3.24727e-05
3.25921e-05
3.27131e-05
3.28353e-05
3.29586e-05
3.30827e-05
3.32076e-05
3.33328e-05
3.3458e-05
3.35826e-05
3.37059e-05
3.38274e-05
3.39469e-05
3.40644e-05
3.41803e-05
3.42946e-05
3.44068e-05
3.45158e-05
3.46202e-05
3.47186e-05
3.48108e-05
3.48977e-05
3.49804e-05
3.506e-05
3.51356e-05
3.52048e-05
3.52649e-05
3.53151e-05
3.53559e-05
3.53896e-05
3.54175e-05
3.54395e-05
3.54539e-05
3.54587e-05
3.5453e-05
3.5437e-05
3.54115e-05
3.5377e-05
3.53332e-05
3.528e-05
3.52177e-05
3.51466e-05
3.50671e-05
3.49798e-05
3.48852e-05
3.47838e-05
3.46763e-05
3.45634e-05
3.44462e-05
3.43251e-05
3.42011e-05
3.40743e-05
3.39456e-05
3.38151e-05
3.36819e-05
3.35465e-05
3.34073e-05
3.32653e-05
3.31186e-05
3.2966e-05
3.28032e-05
3.26335e-05
3.24615e-05
3.16846e-05
3.15287e-05
3.13883e-05
3.12581e-05
3.11443e-05
3.1038e-05
3.09449e-05
3.08631e-05
3.07939e-05
3.07375e-05
3.06934e-05
3.06615e-05
3.06414e-05
3.06328e-05
3.06349e-05
3.06473e-05
3.06692e-05
3.07005e-05
3.07403e-05
3.07884e-05
3.08441e-05
3.0907e-05
3.09767e-05
3.10526e-05
3.11343e-05
3.12214e-05
3.13134e-05
3.14098e-05
3.15104e-05
3.16146e-05
3.17222e-05
3.18327e-05
3.1946e-05
3.20616e-05
3.21793e-05
3.22987e-05
3.24195e-05
3.25413e-05
3.26637e-05
3.27865e-05
3.29094e-05
3.30323e-05
3.31548e-05
3.32768e-05
3.33978e-05
3.35172e-05
3.36343e-05
3.37487e-05
3.38602e-05
3.39688e-05
3.40746e-05
3.41776e-05
3.42773e-05
3.43728e-05
3.44627e-05
3.4546e-05
3.46224e-05
3.46925e-05
3.47574e-05
3.48178e-05
3.48728e-05
3.49207e-05
3.49592e-05
3.49875e-05
3.50063e-05
3.50173e-05
3.50216e-05
3.50191e-05
3.50085e-05
3.49885e-05
3.49583e-05
3.4918e-05
3.48685e-05
3.481e-05
3.47425e-05
3.46666e-05
3.45831e-05
3.44923e-05
3.43948e-05
3.42913e-05
3.41822e-05
3.40683e-05
3.39503e-05
3.3829e-05
3.37055e-05
3.35803e-05
3.34544e-05
3.33281e-05
3.32016e-05
3.30756e-05
3.29489e-05
3.28221e-05
3.26934e-05
3.25633e-05
3.24299e-05
3.22921e-05
3.21469e-05
3.19951e-05
3.18421e-05
3.11113e-05
3.09755e-05
3.0856e-05
3.0744e-05
3.06492e-05
3.05627e-05
3.04896e-05
3.0428e-05
3.03789e-05
3.03425e-05
3.0318e-05
3.03055e-05
3.03043e-05
3.0314e-05
3.03339e-05
3.03634e-05
3.0402e-05
3.04492e-05
3.05043e-05
3.0567e-05
3.06365e-05
3.07125e-05
3.07946e-05
3.08821e-05
3.09747e-05
3.10718e-05
3.11731e-05
3.1278e-05
3.13863e-05
3.14975e-05
3.16112e-05
3.17272e-05
3.18449e-05
3.19643e-05
3.20848e-05
3.22062e-05
3.23282e-05
3.24502e-05
3.25721e-05
3.26935e-05
3.2814e-05
3.29336e-05
3.30519e-05
3.31687e-05
3.32835e-05
3.33957e-05
3.35048e-05
3.36103e-05
3.3712e-05
3.38098e-05
3.39038e-05
3.39938e-05
3.40795e-05
3.41599e-05
3.4234e-05
3.43008e-05
3.43601e-05
3.44123e-05
3.44584e-05
3.44988e-05
3.45329e-05
3.4559e-05
3.45757e-05
3.45821e-05
3.4579e-05
3.45676e-05
3.4549e-05
3.45231e-05
3.4489e-05
3.44458e-05
3.43928e-05
3.43304e-05
3.42591e-05
3.41792e-05
3.40916e-05
3.39972e-05
3.38966e-05
3.37906e-05
3.36795e-05
3.35643e-05
3.34454e-05
3.33238e-05
3.32003e-05
3.30754e-05
3.29503e-05
3.28256e-05
3.27021e-05
3.25803e-05
3.246e-05
3.23422e-05
3.22253e-05
3.211e-05
3.19945e-05
3.18785e-05
3.17605e-05
3.16395e-05
3.15132e-05
3.13807e-05
3.12481e-05
3.05644e-05
3.04496e-05
3.03507e-05
3.02569e-05
3.01805e-05
3.01129e-05
3.00586e-05
3.0016e-05
2.99853e-05
2.99671e-05
2.99604e-05
2.99652e-05
2.99807e-05
3.00065e-05
3.00417e-05
3.00861e-05
3.01388e-05
3.01995e-05
3.02674e-05
3.03421e-05
3.0423e-05
3.05098e-05
3.06017e-05
3.06985e-05
3.07995e-05
3.09044e-05
3.10127e-05
3.11239e-05
3.12376e-05
3.13535e-05
3.14712e-05
3.15903e-05
3.17104e-05
3.18313e-05
3.19526e-05
3.20739e-05
3.21949e-05
3.23152e-05
3.24345e-05
3.25523e-05
3.26685e-05
3.27828e-05
3.2895e-05
3.30047e-05
3.31114e-05
3.32147e-05
3.33139e-05
3.34088e-05
3.34989e-05
3.35843e-05
3.36649e-05
3.37405e-05
3.38108e-05
3.38751e-05
3.39322e-05
3.39814e-05
3.40227e-05
3.40563e-05
3.4083e-05
3.41031e-05
3.41161e-05
3.41208e-05
3.41159e-05
3.4101e-05
3.40766e-05
3.40439e-05
3.40037e-05
3.39561e-05
3.39006e-05
3.38364e-05
3.37632e-05
3.36814e-05
3.35913e-05
3.34937e-05
3.33903e-05
3.32817e-05
3.31686e-05
3.30517e-05
3.29318e-05
3.28096e-05
3.26858e-05
3.25612e-05
3.24366e-05
3.23126e-05
3.21902e-05
3.20701e-05
3.19529e-05
3.18392e-05
3.17282e-05
3.16215e-05
3.1517e-05
3.14155e-05
3.1315e-05
3.12148e-05
3.11137e-05
3.10107e-05
3.09042e-05
3.0792e-05
3.06801e-05
3.00447e-05
2.99511e-05
2.98721e-05
2.97962e-05
2.97372e-05
2.96873e-05
2.96504e-05
2.9625e-05
2.96111e-05
2.96091e-05
2.96181e-05
2.96381e-05
2.9668e-05
2.97075e-05
2.97557e-05
2.98125e-05
2.98769e-05
2.99486e-05
3.00269e-05
3.01112e-05
3.02011e-05
3.02961e-05
3.03956e-05
3.04992e-05
3.06063e-05
3.07166e-05
3.08296e-05
3.09447e-05
3.10617e-05
3.11801e-05
3.12995e-05
3.14196e-05
3.154e-05
3.16603e-05
3.17802e-05
3.18994e-05
3.20174e-05
3.21339e-05
3.22486e-05
3.2361e-05
3.24709e-05
3.25781e-05
3.26823e-05
3.2783e-05
3.288e-05
3.29726e-05
3.30605e-05
3.3143e-05
3.32202e-05
3.32917e-05
3.33576e-05
3.34178e-05
3.34717e-05
3.35188e-05
3.35583e-05
3.35894e-05
3.36121e-05
3.36268e-05
3.36341e-05
3.36342e-05
3.36266e-05
3.36106e-05
3.35851e-05
3.355e-05
3.35058e-05
3.34534e-05
3.33937e-05
3.33268e-05
3.32524e-05
3.31701e-05
3.30799e-05
3.29819e-05
3.28768e-05
3.27662e-05
3.26513e-05
3.25331e-05
3.24121e-05
3.22891e-05
3.2165e-05
3.20404e-05
3.19162e-05
3.17929e-05
3.16715e-05
3.15524e-05
3.14365e-05
3.13244e-05
3.12166e-05
3.11137e-05
3.10147e-05
3.09211e-05
3.08308e-05
3.07445e-05
3.06602e-05
3.05768e-05
3.04935e-05
3.04091e-05
3.03226e-05
3.02307e-05
3.01396e-05
2.95527e-05
2.94801e-05
2.94197e-05
2.9361e-05
2.93182e-05
2.92846e-05
2.92634e-05
2.92534e-05
2.92542e-05
2.92665e-05
2.92891e-05
2.93219e-05
2.93639e-05
2.94148e-05
2.94736e-05
2.95403e-05
2.9614e-05
2.96943e-05
2.97804e-05
2.9872e-05
2.99685e-05
3.00694e-05
3.01741e-05
3.02822e-05
3.03931e-05
3.05066e-05
3.06219e-05
3.07389e-05
3.08569e-05
3.09756e-05
3.10947e-05
3.12136e-05
3.13322e-05
3.14499e-05
3.15664e-05
3.16815e-05
3.17946e-05
3.19054e-05
3.20136e-05
3.21187e-05
3.22206e-05
3.23189e-05
3.24134e-05
3.25037e-05
3.25893e-05
3.26699e-05
3.27449e-05
3.2814e-05
3.28769e-05
3.29336e-05
3.2984e-05
3.30278e-05
3.30648e-05
3.30944e-05
3.31159e-05
3.31288e-05
3.31331e-05
3.31293e-05
3.31176e-05
3.30985e-05
3.30715e-05
3.30362e-05
3.29918e-05
3.29383e-05
3.28762e-05
3.28066e-05
3.273e-05
3.26467e-05
3.25568e-05
3.24599e-05
3.23563e-05
3.22461e-05
3.21305e-05
3.20114e-05
3.18899e-05
3.17666e-05
3.16423e-05
3.15178e-05
3.13938e-05
3.12711e-05
3.11505e-05
3.10325e-05
3.09178e-05
3.08068e-05
3.07004e-05
3.0599e-05
3.0503e-05
3.04128e-05
3.03274e-05
3.02483e-05
3.01731e-05
3.01028e-05
3.00351e-05
2.99689e-05
2.99033e-05
2.98376e-05
2.97707e-05
2.96987e-05
2.96277e-05
2.90887e-05
2.90362e-05
2.89929e-05
2.89502e-05
2.89222e-05
2.89031e-05
2.88959e-05
2.88992e-05
2.89128e-05
2.89371e-05
2.8971e-05
2.90144e-05
2.90662e-05
2.91261e-05
2.91931e-05
2.92674e-05
2.9348e-05
2.94346e-05
2.95263e-05
2.96228e-05
2.97235e-05
2.9828e-05
2.99356e-05
3.0046e-05
3.01586e-05
3.0273e-05
3.03886e-05
3.05052e-05
3.06222e-05
3.07392e-05
3.08558e-05
3.09717e-05
3.10864e-05
3.11996e-05
3.13109e-05
3.14199e-05
3.15263e-05
3.16297e-05
3.17297e-05
3.1826e-05
3.19182e-05
3.20062e-05
3.20896e-05
3.2168e-05
3.22412e-05
3.23085e-05
3.23697e-05
3.24244e-05
3.24724e-05
3.25136e-05
3.25479e-05
3.25751e-05
3.25951e-05
3.26072e-05
3.26111e-05
3.26063e-05
3.2593e-05
3.25715e-05
3.25421e-05
3.25052e-05
3.24607e-05
3.24081e-05
3.2347e-05
3.22776e-05
3.22005e-05
3.21165e-05
3.20263e-05
3.19303e-05
3.18285e-05
3.1721e-05
3.16081e-05
3.14901e-05
3.13689e-05
3.1246e-05
3.11222e-05
3.09983e-05
3.0875e-05
3.07531e-05
3.06332e-05
3.05162e-05
3.04026e-05
3.02929e-05
3.01878e-05
3.00875e-05
2.99927e-05
2.99038e-05
2.9821e-05
2.97447e-05
2.96737e-05
2.96094e-05
2.95498e-05
2.94954e-05
2.9444e-05
2.93946e-05
2.93463e-05
2.92985e-05
2.92502e-05
2.91972e-05
2.91451e-05
2.86527e-05
2.86188e-05
2.85907e-05
2.85626e-05
2.85477e-05
2.85413e-05
2.85461e-05
2.85607e-05
2.8585e-05
2.8619e-05
2.86621e-05
2.87138e-05
2.8773e-05
2.88396e-05
2.89126e-05
2.89922e-05
2.90774e-05
2.91679e-05
2.92629e-05
2.93621e-05
2.94649e-05
2.95708e-05
2.96792e-05
2.97897e-05
2.99018e-05
3.00151e-05
3.0129e-05
3.02432e-05
3.03572e-05
3.04706e-05
3.05829e-05
3.06938e-05
3.08029e-05
3.09098e-05
3.10141e-05
3.11156e-05
3.12137e-05
3.13081e-05
3.13985e-05
3.14845e-05
3.15659e-05
3.16423e-05
3.17135e-05
3.17791e-05
3.18389e-05
3.18923e-05
3.19391e-05
3.19789e-05
3.20117e-05
3.20372e-05
3.20555e-05
3.20665e-05
3.20699e-05
3.20653e-05
3.20525e-05
3.20312e-05
3.20016e-05
3.19639e-05
3.19188e-05
3.18663e-05
3.18066e-05
3.17394e-05
3.16646e-05
3.15825e-05
3.14936e-05
3.13988e-05
3.12987e-05
3.11938e-05
3.10844e-05
3.09705e-05
3.08526e-05
3.07316e-05
3.06093e-05
3.04868e-05
3.0365e-05
3.02446e-05
3.01261e-05
3.00103e-05
2.98979e-05
2.97895e-05
2.96855e-05
2.95865e-05
2.94929e-05
2.94049e-05
2.93229e-05
2.92474e-05
2.91784e-05
2.91162e-05
2.90597e-05
2.901e-05
2.89653e-05
2.89261e-05
2.88902e-05
2.88566e-05
2.88245e-05
2.87934e-05
2.87622e-05
2.87268e-05
2.8692e-05
2.82441e-05
2.82269e-05
2.8212e-05
2.81969e-05
2.81932e-05
2.81976e-05
2.82123e-05
2.82362e-05
2.82689e-05
2.83106e-05
2.83606e-05
2.84183e-05
2.84828e-05
2.85538e-05
2.86306e-05
2.87133e-05
2.88009e-05
2.88932e-05
2.89894e-05
2.90892e-05
2.91919e-05
2.92971e-05
2.94043e-05
2.9513e-05
2.96227e-05
2.9733e-05
2.98433e-05
2.99533e-05
3.00625e-05
3.01704e-05
3.02768e-05
3.03811e-05
3.0483e-05
3.05821e-05
3.0678e-05
3.07705e-05
3.0859e-05
3.09432e-05
3.10228e-05
3.10976e-05
3.11671e-05
3.12312e-05
3.12895e-05
3.13418e-05
3.13878e-05
3.1427e-05
3.14593e-05
3.14844e-05
3.15021e-05
3.15125e-05
3.15155e-05
3.1511e-05
3.1499e-05
3.14791e-05
3.14512e-05
3.14151e-05
3.13712e-05
3.13198e-05
3.12613e-05
3.1196e-05
3.11242e-05
3.10456e-05
3.09606e-05
3.08693e-05
3.07724e-05
3.06706e-05
3.05648e-05
3.04552e-05
3.03423e-05
3.02264e-05
3.01078e-05
2.99883e-05
2.9869e-05
2.97509e-05
2.96348e-05
2.95212e-05
2.94106e-05
2.93038e-05
2.92012e-05
2.91035e-05
2.90109e-05
2.89239e-05
2.88429e-05
2.87678e-05
2.8699e-05
2.86369e-05
2.85815e-05
2.85329e-05
2.849e-05
2.84541e-05
2.84232e-05
2.83978e-05
2.8376e-05
2.83567e-05
2.83392e-05
2.83231e-05
2.83073e-05
2.82876e-05
2.82682e-05
2.78621e-05
2.78593e-05
2.78557e-05
2.78516e-05
2.78573e-05
2.78705e-05
2.78931e-05
2.79241e-05
2.79631e-05
2.80103e-05
2.8065e-05
2.81267e-05
2.81943e-05
2.82676e-05
2.83461e-05
2.84298e-05
2.85177e-05
2.86098e-05
2.87053e-05
2.88037e-05
2.89045e-05
2.90072e-05
2.91113e-05
2.92163e-05
2.93218e-05
2.94274e-05
2.95324e-05
2.96366e-05
2.97395e-05
2.98405e-05
2.99394e-05
3.00357e-05
3.01291e-05
3.02192e-05
3.03056e-05
3.0388e-05
3.04659e-05
3.05391e-05
3.06073e-05
3.06701e-05
3.07273e-05
3.07787e-05
3.08239e-05
3.08628e-05
3.08951e-05
3.09205e-05
3.09387e-05
3.09497e-05
3.09533e-05
3.09496e-05
3.09386e-05
3.09202e-05
3.08945e-05
3.08613e-05
3.08205e-05
3.07721e-05
3.07166e-05
3.06542e-05
3.05855e-05
3.05107e-05
3.04303e-05
3.03441e-05
3.02526e-05
3.0156e-05
3.00551e-05
2.99504e-05
2.98428e-05
2.97327e-05
2.96205e-05
2.95066e-05
2.93917e-05
2.92775e-05
2.91648e-05
2.90543e-05
2.89467e-05
2.88425e-05
2.87421e-05
2.86461e-05
2.85549e-05
2.84691e-05
2.83887e-05
2.83142e-05
2.82458e-05
2.81835e-05
2.81275e-05
2.8078e-05
2.80351e-05
2.79989e-05
2.79684e-05
2.79445e-05
2.79258e-05
2.79124e-05
2.79028e-05
2.78958e-05
2.78911e-05
2.7888e-05
2.78854e-05
2.78793e-05
2.78731e-05
2.75059e-05
2.7515e-05
2.75205e-05
2.75254e-05
2.75387e-05
2.75587e-05
2.75871e-05
2.76232e-05
2.76664e-05
2.77171e-05
2.77744e-05
2.7838e-05
2.79067e-05
2.79804e-05
2.80586e-05
2.81414e-05
2.82279e-05
2.83179e-05
2.84108e-05
2.85061e-05
2.86032e-05
2.87017e-05
2.88011e-05
2.89009e-05
2.90007e-05
2.91001e-05
2.91984e-05
2.92955e-05
2.93907e-05
2.94836e-05
2.95739e-05
2.96612e-05
2.97451e-05
2.98253e-05
2.99014e-05
2.9973e-05
3.00399e-05
3.01016e-05
3.0158e-05
3.02087e-05
3.02536e-05
3.02924e-05
3.03249e-05
3.03509e-05
3.03702e-05
3.03826e-05
3.03879e-05
3.03861e-05
3.03771e-05
3.0361e-05
3.03379e-05
3.03078e-05
3.02707e-05
3.02268e-05
3.01759e-05
3.01183e-05
3.00543e-05
2.99843e-05
2.99089e-05
2.98283e-05
2.9743e-05
2.96532e-05
2.95591e-05
2.94613e-05
2.93602e-05
2.92567e-05
2.91513e-05
2.90446e-05
2.89368e-05
2.88285e-05
2.87209e-05
2.8615e-05
2.85116e-05
2.84111e-05
2.8314e-05
2.82209e-05
2.8132e-05
2.80478e-05
2.79687e-05
2.7895e-05
2.78267e-05
2.77644e-05
2.77079e-05
2.76573e-05
2.76129e-05
2.75747e-05
2.75428e-05
2.75172e-05
2.74971e-05
2.74833e-05
2.74745e-05
2.74711e-05
2.74714e-05
2.74745e-05
2.74802e-05
2.74878e-05
2.7496e-05
2.75013e-05
2.7506e-05
2.71746e-05
2.71928e-05
2.72055e-05
2.72174e-05
2.72363e-05
2.72612e-05
2.72935e-05
2.73326e-05
2.73781e-05
2.74303e-05
2.74884e-05
2.75519e-05
2.76199e-05
2.76922e-05
2.77683e-05
2.78485e-05
2.79319e-05
2.80183e-05
2.8107e-05
2.81976e-05
2.82895e-05
2.83824e-05
2.84757e-05
2.85691e-05
2.86619e-05
2.87539e-05
2.88445e-05
2.89333e-05
2.90199e-05
2.91039e-05
2.91848e-05
2.92624e-05
2.93363e-05
2.94061e-05
2.94715e-05
2.95322e-05
2.95879e-05
2.96382e-05
2.9683e-05
2.97221e-05
2.97552e-05
2.97821e-05
2.98028e-05
2.9817e-05
2.98246e-05
2.98254e-05
2.98195e-05
2.98067e-05
2.97872e-05
2.9761e-05
2.97283e-05
2.96892e-05
2.96438e-05
2.95922e-05
2.95345e-05
2.9471e-05
2.9402e-05
2.93281e-05
2.92497e-05
2.91672e-05
2.90809e-05
2.89913e-05
2.88986e-05
2.88032e-05
2.87059e-05
2.8607e-05
2.85073e-05
2.84073e-05
2.83072e-05
2.82076e-05
2.81099e-05
2.80146e-05
2.79222e-05
2.78331e-05
2.77478e-05
2.76665e-05
2.75895e-05
2.75173e-05
2.74499e-05
2.73877e-05
2.73308e-05
2.72794e-05
2.72335e-05
2.71931e-05
2.71585e-05
2.71296e-05
2.71066e-05
2.70894e-05
2.70774e-05
2.70714e-05
2.70702e-05
2.70741e-05
2.70818e-05
2.70927e-05
2.71062e-05
2.7122e-05
2.71387e-05
2.71527e-05
2.71661e-05
2.68674e-05
2.6892e-05
2.69099e-05
2.69269e-05
2.69495e-05
2.69773e-05
2.70117e-05
2.7052e-05
2.7098e-05
2.71499e-05
2.7207e-05
2.72687e-05
2.73343e-05
2.74036e-05
2.74762e-05
2.75523e-05
2.76311e-05
2.77125e-05
2.77957e-05
2.78804e-05
2.7966e-05
2.80521e-05
2.81383e-05
2.82241e-05
2.83091e-05
2.83928e-05
2.84749e-05
2.85548e-05
2.86323e-05
2.87068e-05
2.8778e-05
2.88457e-05
2.89094e-05
2.89688e-05
2.90237e-05
2.90737e-05
2.91186e-05
2.91582e-05
2.91922e-05
2.92205e-05
2.92429e-05
2.92592e-05
2.92695e-05
2.92735e-05
2.92713e-05
2.92627e-05
2.92477e-05
2.92265e-05
2.9199e-05
2.91655e-05
2.91262e-05
2.90812e-05
2.90307e-05
2.89748e-05
2.89139e-05
2.8848e-05
2.87779e-05
2.87037e-05
2.86261e-05
2.85453e-05
2.84619e-05
2.83761e-05
2.82882e-05
2.81988e-05
2.81083e-05
2.80172e-05
2.79261e-05
2.78354e-05
2.77452e-05
2.76566e-05
2.75705e-05
2.7487e-05
2.74066e-05
2.73295e-05
2.72561e-05
2.71866e-05
2.71211e-05
2.70601e-05
2.70035e-05
2.69516e-05
2.69045e-05
2.68624e-05
2.68252e-05
2.67931e-05
2.67661e-05
2.67442e-05
2.67277e-05
2.67164e-05
2.67101e-05
2.67092e-05
2.67129e-05
2.67216e-05
2.67341e-05
2.67499e-05
2.67687e-05
2.67901e-05
2.68126e-05
2.6833e-05
2.68526e-05
2.65839e-05
2.66123e-05
2.66334e-05
2.66535e-05
2.66781e-05
2.67071e-05
2.67418e-05
2.67816e-05
2.68264e-05
2.68763e-05
2.69308e-05
2.69894e-05
2.70512e-05
2.71162e-05
2.7184e-05
2.72547e-05
2.73278e-05
2.7403e-05
2.74797e-05
2.75575e-05
2.76359e-05
2.77145e-05
2.77928e-05
2.78705e-05
2.7947e-05
2.80221e-05
2.80952e-05
2.81661e-05
2.82342e-05
2.82992e-05
2.83608e-05
2.84188e-05
2.84726e-05
2.85222e-05
2.85672e-05
2.86073e-05
2.86424e-05
2.86723e-05
2.86968e-05
2.87158e-05
2.87291e-05
2.87367e-05
2.87386e-05
2.87346e-05
2.87249e-05
2.87094e-05
2.86881e-05
2.86611e-05
2.86288e-05
2.85911e-05
2.85484e-05
2.85008e-05
2.84487e-05
2.83921e-05
2.83314e-05
2.82669e-05
2.8199e-05
2.81282e-05
2.80548e-05
2.79792e-05
2.79019e-05
2.7823e-05
2.77431e-05
2.76623e-05
2.75813e-05
2.75003e-05
2.74198e-05
2.73402e-05
2.72616e-05
2.71852e-05
2.71113e-05
2.70401e-05
2.69717e-05
2.69064e-05
2.68444e-05
2.67858e-05
2.67309e-05
2.66797e-05
2.66324e-05
2.65891e-05
2.655e-05
2.6515e-05
2.64844e-05
2.64581e-05
2.64363e-05
2.6419e-05
2.64064e-05
2.63985e-05
2.63951e-05
2.63966e-05
2.64025e-05
2.64132e-05
2.64278e-05
2.64459e-05
2.64673e-05
2.64915e-05
2.65173e-05
2.65415e-05
2.65649e-05
2.63238e-05
2.63535e-05
2.6376e-05
2.63974e-05
2.64223e-05
2.64509e-05
2.64843e-05
2.65221e-05
2.65642e-05
2.66109e-05
2.66615e-05
2.67156e-05
2.67725e-05
2.68321e-05
2.68941e-05
2.69586e-05
2.70251e-05
2.70934e-05
2.71629e-05
2.72332e-05
2.73038e-05
2.73744e-05
2.74445e-05
2.75138e-05
2.75817e-05
2.76481e-05
2.77124e-05
2.77743e-05
2.78333e-05
2.78893e-05
2.79419e-05
2.79908e-05
2.80356e-05
2.80763e-05
2.81126e-05
2.81441e-05
2.81709e-05
2.81927e-05
2.82094e-05
2.8221e-05
2.82274e-05
2.82285e-05
2.82243e-05
2.8215e-05
2.82005e-05
2.81809e-05
2.81562e-05
2.81267e-05
2.80925e-05
2.80539e-05
2.80112e-05
2.79645e-05
2.79141e-05
2.78602e-05
2.78032e-05
2.77433e-05
2.7681e-05
2.76165e-05
2.75503e-05
2.74828e-05
2.74142e-05
2.73449e-05
2.72751e-05
2.7205e-05
2.71352e-05
2.70657e-05
2.69971e-05
2.69296e-05
2.68635e-05
2.67996e-05
2.67379e-05
2.66785e-05
2.66215e-05
2.65671e-05
2.65154e-05
2.64665e-05
2.64205e-05
2.63775e-05
2.63376e-05
2.63009e-05
2.62675e-05
2.62375e-05
2.62111e-05
2.61882e-05
2.6169e-05
2.61537e-05
2.61425e-05
2.61352e-05
2.61321e-05
2.61333e-05
2.61388e-05
2.61487e-05
2.61626e-05
2.61802e-05
2.62015e-05
2.6226e-05
2.62523e-05
2.62779e-05
2.63028e-05
2.60873e-05
2.61161e-05
2.61383e-05
2.61592e-05
2.6183e-05
2.62097e-05
2.62405e-05
2.62749e-05
2.63132e-05
2.63554e-05
2.64011e-05
2.64498e-05
2.65009e-05
2.65543e-05
2.66097e-05
2.66675e-05
2.67269e-05
2.67878e-05
2.68497e-05
2.69123e-05
2.6975e-05
2.70376e-05
2.70995e-05
2.71606e-05
2.72202e-05
2.72782e-05
2.73342e-05
2.73877e-05
2.74385e-05
2.74863e-05
2.75308e-05
2.75718e-05
2.7609e-05
2.76422e-05
2.76713e-05
2.7696e-05
2.77163e-05
2.7732e-05
2.77432e-05
2.77496e-05
2.77515e-05
2.77486e-05
2.77412e-05
2.77292e-05
2.77129e-05
2.76921e-05
2.76672e-05
2.76382e-05
2.76055e-05
2.75691e-05
2.75295e-05
2.74868e-05
2.74413e-05
2.73932e-05
2.73428e-05
2.72903e-05
2.72362e-05
2.71807e-05
2.71241e-05
2.70667e-05
2.70089e-05
2.69508e-05
2.68926e-05
2.68345e-05
2.67768e-05
2.67197e-05
2.66635e-05
2.66083e-05
2.65545e-05
2.65026e-05
2.64524e-05
2.64039e-05
2.63572e-05
2.63124e-05
2.62695e-05
2.62286e-05
2.61898e-05
2.6153e-05
2.61185e-05
2.60863e-05
2.60564e-05
2.60291e-05
2.60044e-05
2.59825e-05
2.59635e-05
2.59477e-05
2.59352e-05
2.59261e-05
2.59206e-05
2.59189e-05
2.59212e-05
2.59277e-05
2.59382e-05
2.59527e-05
2.59712e-05
2.59932e-05
2.60176e-05
2.60421e-05
2.60663e-05
2.5875e-05
2.5901e-05
2.59212e-05
2.59402e-05
2.59614e-05
2.59849e-05
2.60119e-05
2.60421e-05
2.60755e-05
2.61124e-05
2.61524e-05
2.6195e-05
2.62397e-05
2.62865e-05
2.63351e-05
2.63858e-05
2.64379e-05
2.64915e-05
2.65459e-05
2.66008e-05
2.66559e-05
2.67107e-05
2.6765e-05
2.68183e-05
2.68703e-05
2.69207e-05
2.69693e-05
2.70155e-05
2.70592e-05
2.71001e-05
2.7138e-05
2.71726e-05
2.72037e-05
2.72313e-05
2.72551e-05
2.72751e-05
2.7291e-05
2.7303e-05
2.7311e-05
2.73149e-05
2.73148e-05
2.73107e-05
2.73028e-05
2.72911e-05
2.72757e-05
2.72568e-05
2.72345e-05
2.7209e-05
2.71806e-05
2.71494e-05
2.71157e-05
2.70797e-05
2.70417e-05
2.70019e-05
2.69604e-05
2.69176e-05
2.68737e-05
2.6829e-05
2.67837e-05
2.6738e-05
2.66921e-05
2.66461e-05
2.66003e-05
2.65547e-05
2.65094e-05
2.64647e-05
2.64207e-05
2.63774e-05
2.63354e-05
2.62945e-05
2.62546e-05
2.62158e-05