/*--------------------------------*- C++ -*----------------------------------*\
| =========                 |                                                 |
| \\      /  F ield         | OpenFOAM: The Open Source CFD Toolbox           |
|  \\    /   O peration     | Version:  2306                                  |
|   \\  /    A nd           | Website:  www.openfoam.com                      |
|    \\/     M anipulation  |                                                 |
\*---------------------------------------------------------------------------*/
// * * * * * * * * * * * * * * * * * * * * * * * * * * * * * * * * * * * * * //
FoamFile
{
    version         2;
    format          ascii;
    class           volScalarField;
    location        "2.47";
    object          nut;
}

dimensions      [ 0 2 -1 0 0 0 0 ];

internalField   nonuniform List<scalar> 
14751
(
1.61604e-05
1.61308e-05
1.61008e-05
1.61011e-05
1.61147e-05
1.61323e-05
1.61644e-05
1.62046e-05
1.62568e-05
1.6319e-05
1.63914e-05
1.64719e-05
1.65625e-05
1.66614e-05
1.67688e-05
1.68831e-05
1.70035e-05
1.71299e-05
1.72607e-05
1.73955e-05
1.7533e-05
1.76729e-05
1.78145e-05
1.79567e-05
1.8099e-05
1.82404e-05
1.83806e-05
1.85183e-05
1.86533e-05
1.87851e-05
1.8913e-05
1.90365e-05
1.91556e-05
1.92695e-05
1.93782e-05
1.9481e-05
1.95776e-05
1.96675e-05
1.97504e-05
1.98267e-05
1.98965e-05
1.99601e-05
2.00173e-05
2.00682e-05
2.01115e-05
2.01466e-05
2.01731e-05
2.01914e-05
2.02026e-05
2.02082e-05
2.02095e-05
2.02063e-05
2.01971e-05
2.01792e-05
2.015e-05
2.01092e-05
2.00598e-05
2.00075e-05
1.99572e-05
1.99088e-05
1.98566e-05
1.97924e-05
1.9712e-05
1.96189e-05
1.95224e-05
1.94307e-05
1.93453e-05
1.92602e-05
1.91681e-05
1.90652e-05
1.89537e-05
1.88388e-05
1.8725e-05
1.86128e-05
1.85009e-05
1.83873e-05
1.82718e-05
1.81546e-05
1.80366e-05
1.79181e-05
1.78e-05
1.76828e-05
1.75662e-05
1.74514e-05
1.7339e-05
1.72291e-05
1.71233e-05
1.70198e-05
1.69227e-05
1.68293e-05
1.6741e-05
1.66579e-05
1.65787e-05
1.65071e-05
1.64413e-05
1.63809e-05
1.63152e-05
1.6258e-05
1.62063e-05
1.9062e-05
1.90487e-05
1.90348e-05
1.90547e-05
1.90931e-05
1.91351e-05
1.91959e-05
1.92663e-05
1.93505e-05
1.94465e-05
1.95535e-05
1.96698e-05
1.97962e-05
1.99317e-05
2.00756e-05
2.02265e-05
2.03829e-05
2.05452e-05
2.0711e-05
2.08803e-05
2.10512e-05
2.12237e-05
2.13966e-05
2.1569e-05
2.17401e-05
2.19091e-05
2.20754e-05
2.22379e-05
2.23962e-05
2.25498e-05
2.2698e-05
2.28404e-05
2.29767e-05
2.31066e-05
2.32296e-05
2.33454e-05
2.34535e-05
2.35536e-05
2.36453e-05
2.3729e-05
2.38047e-05
2.38728e-05
2.39332e-05
2.39859e-05
2.40299e-05
2.40646e-05
2.40895e-05
2.41049e-05
2.4112e-05
2.4112e-05
2.41063e-05
2.40948e-05
2.40762e-05
2.40481e-05
2.40078e-05
2.39551e-05
2.38926e-05
2.38255e-05
2.37586e-05
2.3692e-05
2.36208e-05
2.35373e-05
2.34374e-05
2.33242e-05
2.3206e-05
2.30906e-05
2.29798e-05
2.28683e-05
2.27494e-05
2.26198e-05
2.24812e-05
2.23383e-05
2.21953e-05
2.2053e-05
2.19103e-05
2.17656e-05
2.16187e-05
2.147e-05
2.13204e-05
2.11704e-05
2.10209e-05
2.08724e-05
2.07251e-05
2.05801e-05
2.04387e-05
2.03003e-05
2.01679e-05
2.00386e-05
1.99177e-05
1.98021e-05
1.96934e-05
1.95927e-05
1.94974e-05
1.94132e-05
1.93371e-05
1.92714e-05
1.92022e-05
1.91451e-05
1.90989e-05
2.26376e-05
2.26447e-05
2.26549e-05
2.27068e-05
2.27787e-05
2.28572e-05
2.29595e-05
2.30745e-05
2.32069e-05
2.33536e-05
2.35131e-05
2.36832e-05
2.38646e-05
2.40556e-05
2.42554e-05
2.44619e-05
2.46737e-05
2.48908e-05
2.51107e-05
2.53331e-05
2.55561e-05
2.57792e-05
2.60013e-05
2.62212e-05
2.64382e-05
2.6651e-05
2.68592e-05
2.70616e-05
2.72577e-05
2.74471e-05
2.76289e-05
2.78028e-05
2.79685e-05
2.81256e-05
2.82737e-05
2.84125e-05
2.85415e-05
2.86605e-05
2.8769e-05
2.88674e-05
2.89557e-05
2.90344e-05
2.91034e-05
2.91629e-05
2.92117e-05
2.92493e-05
2.92752e-05
2.92898e-05
2.92941e-05
2.92894e-05
2.9277e-05
2.92569e-05
2.92281e-05
2.91881e-05
2.91342e-05
2.9066e-05
2.8986e-05
2.88994e-05
2.88108e-05
2.87208e-05
2.86245e-05
2.85146e-05
2.83869e-05
2.82441e-05
2.80942e-05
2.79449e-05
2.77981e-05
2.76493e-05
2.74919e-05
2.73225e-05
2.71428e-05
2.69574e-05
2.67701e-05
2.65822e-05
2.63926e-05
2.62001e-05
2.60048e-05
2.5807e-05
2.56076e-05
2.54074e-05
2.52075e-05
2.50089e-05
2.48115e-05
2.46174e-05
2.44278e-05
2.42422e-05
2.40643e-05
2.38903e-05
2.37275e-05
2.35709e-05
2.34236e-05
2.32867e-05
2.31584e-05
2.30453e-05
2.29445e-05
2.28588e-05
2.27737e-05
2.27095e-05
2.26643e-05
2.66812e-05
2.67162e-05
2.67619e-05
2.68606e-05
2.69781e-05
2.71079e-05
2.72675e-05
2.74441e-05
2.76429e-05
2.78588e-05
2.80903e-05
2.83338e-05
2.85903e-05
2.8857e-05
2.91326e-05
2.94144e-05
2.97012e-05
2.99924e-05
3.02854e-05
3.05794e-05
3.08724e-05
3.11639e-05
3.14523e-05
3.17361e-05
3.20147e-05
3.22866e-05
3.25511e-05
3.28071e-05
3.30542e-05
3.32915e-05
3.35185e-05
3.37347e-05
3.39398e-05
3.41334e-05
3.43151e-05
3.44846e-05
3.46417e-05
3.47858e-05
3.49164e-05
3.50341e-05
3.51389e-05
3.52314e-05
3.53117e-05
3.53797e-05
3.54344e-05
3.54753e-05
3.55019e-05
3.55144e-05
3.55139e-05
3.55018e-05
3.54795e-05
3.54472e-05
3.54037e-05
3.53467e-05
3.52732e-05
3.51826e-05
3.50774e-05
3.49628e-05
3.48438e-05
3.47214e-05
3.45906e-05
3.44441e-05
3.42774e-05
3.40927e-05
3.38982e-05
3.37018e-05
3.35058e-05
3.3306e-05
3.30961e-05
3.28724e-05
3.26363e-05
3.23923e-05
3.21447e-05
3.18948e-05
3.1642e-05
3.1385e-05
3.11245e-05
3.08606e-05
3.05946e-05
3.03275e-05
3.00606e-05
2.97953e-05
2.95318e-05
2.92732e-05
2.90204e-05
2.87731e-05
2.8535e-05
2.83022e-05
2.80836e-05
2.78727e-05
2.76744e-05
2.74892e-05
2.73171e-05
2.71654e-05
2.7031e-05
2.69169e-05
2.68097e-05
2.67365e-05
2.66931e-05
3.10698e-05
3.11422e-05
3.1236e-05
3.13957e-05
3.15724e-05
3.17688e-05
3.20014e-05
3.2256e-05
3.25384e-05
3.2841e-05
3.31622e-05
3.34969e-05
3.38465e-05
3.42061e-05
3.45749e-05
3.49486e-05
3.53268e-05
3.57078e-05
3.60891e-05
3.64695e-05
3.68466e-05
3.72199e-05
3.75874e-05
3.79473e-05
3.82989e-05
3.86405e-05
3.89713e-05
3.92902e-05
3.95966e-05
3.98897e-05
4.01688e-05
4.04336e-05
4.06836e-05
4.09185e-05
4.1138e-05
4.13417e-05
4.1529e-05
4.16998e-05
4.18537e-05
4.19911e-05
4.21122e-05
4.22177e-05
4.23076e-05
4.2382e-05
4.24399e-05
4.24807e-05
4.25038e-05
4.25096e-05
4.24989e-05
4.24735e-05
4.24348e-05
4.23833e-05
4.23178e-05
4.22358e-05
4.21342e-05
4.20122e-05
4.1872e-05
4.17194e-05
4.15596e-05
4.13939e-05
4.12176e-05
4.10232e-05
4.08058e-05
4.05674e-05
4.03159e-05
4.00597e-05
3.98017e-05
3.95381e-05
3.9263e-05
3.8972e-05
3.86666e-05
3.83513e-05
3.80304e-05
3.77056e-05
3.7377e-05
3.70433e-05
3.67057e-05
3.63643e-05
3.60206e-05
3.56757e-05
3.53319e-05
3.49904e-05
3.46521e-05
3.43199e-05
3.39953e-05
3.36784e-05
3.33732e-05
3.30755e-05
3.27956e-05
3.25249e-05
3.22711e-05
3.20332e-05
3.18136e-05
3.16201e-05
3.14499e-05
3.13056e-05
3.11763e-05
3.10969e-05
3.10597e-05
3.57405e-05
3.58605e-05
3.60129e-05
3.62482e-05
3.64981e-05
3.67757e-05
3.70961e-05
3.74439e-05
3.7825e-05
3.82294e-05
3.86551e-05
3.90955e-05
3.95522e-05
4.00184e-05
4.04933e-05
4.09712e-05
4.14524e-05
4.19344e-05
4.24143e-05
4.28906e-05
4.33609e-05
4.38241e-05
4.42782e-05
4.47209e-05
4.51516e-05
4.55682e-05
4.597e-05
4.63554e-05
4.67245e-05
4.70758e-05
4.7409e-05
4.77234e-05
4.80189e-05
4.82951e-05
4.85512e-05
4.87871e-05
4.90027e-05
4.91976e-05
4.93717e-05
4.95253e-05
4.96585e-05
4.97724e-05
4.98668e-05
4.99418e-05
4.99968e-05
5.0031e-05
5.00436e-05
5.00352e-05
5.00066e-05
4.99598e-05
4.98962e-05
4.98167e-05
4.972e-05
4.96035e-05
4.94642e-05
4.93011e-05
4.91161e-05
4.89154e-05
4.87044e-05
4.84851e-05
4.82527e-05
4.79998e-05
4.77214e-05
4.74191e-05
4.71006e-05
4.67747e-05
4.64446e-05
4.61074e-05
4.57574e-05
4.53901e-05
4.50068e-05
4.46118e-05
4.42097e-05
4.38026e-05
4.33911e-05
4.29743e-05
4.25537e-05
4.21296e-05
4.1704e-05
4.12779e-05
4.08534e-05
4.0432e-05
4.00159e-05
3.96086e-05
3.92114e-05
3.88249e-05
3.84527e-05
3.80908e-05
3.77505e-05
3.74214e-05
3.71134e-05
3.68244e-05
3.65593e-05
3.63263e-05
3.61228e-05
3.59514e-05
3.5804e-05
3.57239e-05
3.57001e-05
4.06689e-05
4.08457e-05
4.10667e-05
4.13908e-05
4.17275e-05
4.20998e-05
4.2521e-05
4.29743e-05
4.3467e-05
4.39855e-05
4.45277e-05
4.5085e-05
4.56589e-05
4.62411e-05
4.68301e-05
4.74199e-05
4.80112e-05
4.86001e-05
4.9184e-05
4.97607e-05
5.03278e-05
5.0884e-05
5.14269e-05
5.19541e-05
5.24647e-05
5.29564e-05
5.34286e-05
5.38796e-05
5.43096e-05
5.4717e-05
5.51015e-05
5.54621e-05
5.57986e-05
5.6111e-05
5.63988e-05
5.66618e-05
5.69e-05
5.7113e-05
5.73008e-05
5.74637e-05
5.76019e-05
5.77167e-05
5.78078e-05
5.78756e-05
5.79193e-05
5.79383e-05
5.79317e-05
5.79005e-05
5.78449e-05
5.77676e-05
5.76699e-05
5.7553e-05
5.74155e-05
5.72553e-05
5.70686e-05
5.68552e-05
5.66165e-05
5.63589e-05
5.60878e-05
5.58059e-05
5.55085e-05
5.51888e-05
5.48415e-05
5.4468e-05
5.40758e-05
5.36735e-05
5.32652e-05
5.28481e-05
5.24176e-05
5.19691e-05
5.15038e-05
5.10257e-05
5.05397e-05
5.00482e-05
4.95522e-05
4.90514e-05
4.85481e-05
4.80423e-05
4.75354e-05
4.70286e-05
4.65252e-05
4.60274e-05
4.55372e-05
4.50592e-05
4.45941e-05
4.41428e-05
4.37091e-05
4.32886e-05
4.28935e-05
4.25115e-05
4.21549e-05
4.18205e-05
4.15153e-05
4.12483e-05
4.1017e-05
4.08244e-05
4.06652e-05
4.05915e-05
4.0589e-05
4.58531e-05
4.60945e-05
4.63927e-05
4.68169e-05
4.72523e-05
4.77294e-05
4.82625e-05
4.88313e-05
4.94455e-05
5.00869e-05
5.07542e-05
5.14355e-05
5.21342e-05
5.28379e-05
5.35469e-05
5.42522e-05
5.49557e-05
5.56529e-05
5.63413e-05
5.70182e-05
5.76813e-05
5.83289e-05
5.89583e-05
5.95669e-05
6.01538e-05
6.07166e-05
6.12544e-05
6.17658e-05
6.22506e-05
6.27074e-05
6.31359e-05
6.35353e-05
6.39057e-05
6.42469e-05
6.45587e-05
6.48407e-05
6.50932e-05
6.53159e-05
6.55087e-05
6.56721e-05
6.58064e-05
6.59129e-05
6.59916e-05
6.60428e-05
6.6066e-05
6.60603e-05
6.60254e-05
6.5962e-05
6.58705e-05
6.57536e-05
6.56128e-05
6.54496e-05
6.52627e-05
6.50499e-05
6.48078e-05
6.45362e-05
6.42365e-05
6.39151e-05
6.35774e-05
6.32263e-05
6.28578e-05
6.24653e-05
6.20441e-05
6.15953e-05
6.11259e-05
6.06445e-05
6.01553e-05
5.96565e-05
5.9144e-05
5.86135e-05
5.80663e-05
5.75062e-05
5.69382e-05
5.63649e-05
5.5788e-05
5.52075e-05
5.46265e-05
5.40426e-05
5.34594e-05
5.28786e-05
5.23037e-05
5.17369e-05
5.11808e-05
5.06401e-05
5.01157e-05
4.96083e-05
4.91217e-05
4.86509e-05
4.82093e-05
4.77827e-05
4.73853e-05
4.7013e-05
4.66749e-05
4.6381e-05
4.61287e-05
4.59221e-05
4.57582e-05
4.56983e-05
4.5725e-05
5.13048e-05
5.16161e-05
5.19985e-05
5.25302e-05
5.30746e-05
5.36661e-05
5.43196e-05
5.50118e-05
5.5754e-05
5.65243e-05
5.73213e-05
5.81303e-05
5.89559e-05
5.97825e-05
6.06116e-05
6.14316e-05
6.22464e-05
6.30499e-05
6.38398e-05
6.46131e-05
6.53674e-05
6.61009e-05
6.68105e-05
6.74939e-05
6.81497e-05
6.87756e-05
6.93708e-05
6.99337e-05
7.04647e-05
7.09623e-05
7.14258e-05
7.18549e-05
7.22497e-05
7.26102e-05
7.29363e-05
7.32276e-05
7.34847e-05
7.37072e-05
7.38952e-05
7.40492e-05
7.41699e-05
7.42582e-05
7.43151e-05
7.43401e-05
7.43332e-05
7.42939e-05
7.42217e-05
7.41174e-05
7.39814e-05
7.38167e-05
7.36252e-05
7.34081e-05
7.31643e-05
7.28922e-05
7.25882e-05
7.22526e-05
7.18869e-05
7.1497e-05
7.10886e-05
7.06647e-05
7.02216e-05
6.97539e-05
6.92568e-05
6.87319e-05
6.81852e-05
6.76254e-05
6.70566e-05
6.64778e-05
6.58857e-05
6.52766e-05
6.46518e-05
6.40147e-05
6.33708e-05
6.27224e-05
6.20723e-05
6.14203e-05
6.07675e-05
6.01146e-05
5.94649e-05
5.88203e-05
5.81842e-05
5.7559e-05
5.69478e-05
5.63552e-05
5.57821e-05
5.52292e-05
5.47e-05
5.4189e-05
5.37104e-05
5.32484e-05
5.28188e-05
5.24168e-05
5.20533e-05
5.17396e-05
5.14732e-05
5.12595e-05
5.10974e-05
5.10577e-05
5.11207e-05
5.70429e-05
5.74266e-05
5.7898e-05
5.85422e-05
5.9204e-05
5.99172e-05
6.06969e-05
6.15175e-05
6.23911e-05
6.32929e-05
6.42208e-05
6.51576e-05
6.61088e-05
6.70559e-05
6.80014e-05
6.89318e-05
6.98524e-05
7.07564e-05
7.16411e-05
7.25031e-05
7.33406e-05
7.41514e-05
7.49324e-05
7.56811e-05
7.63963e-05
7.70752e-05
7.77178e-05
7.8322e-05
7.88888e-05
7.94162e-05
7.99044e-05
8.03526e-05
8.07612e-05
8.11302e-05
8.146e-05
8.17501e-05
8.20013e-05
8.22132e-05
8.23863e-05
8.25212e-05
8.26184e-05
8.26792e-05
8.27047e-05
8.26948e-05
8.26491e-05
8.25678e-05
8.24504e-05
8.22975e-05
8.21101e-05
8.18911e-05
8.16429e-05
8.13661e-05
8.10601e-05
8.07239e-05
8.0354e-05
7.99509e-05
7.95166e-05
7.90563e-05
7.85762e-05
7.80787e-05
7.75609e-05
7.70184e-05
7.64468e-05
7.58481e-05
7.52275e-05
7.45933e-05
7.39497e-05
7.32965e-05
7.26309e-05
7.19503e-05
7.12556e-05
7.05503e-05
6.984e-05
6.91269e-05
6.84141e-05
6.76992e-05
6.69866e-05
6.62766e-05
6.55729e-05
6.48768e-05
6.4192e-05
6.35208e-05
6.28666e-05
6.22341e-05
6.16241e-05
6.10366e-05
6.04757e-05
5.99347e-05
5.94286e-05
5.89399e-05
5.84862e-05
5.80619e-05
5.76795e-05
5.73521e-05
5.70774e-05
5.6862e-05
5.6707e-05
5.66924e-05
5.67969e-05
6.30905e-05
6.35451e-05
6.41082e-05
6.48673e-05
6.56521e-05
6.64916e-05
6.74007e-05
6.83515e-05
6.9357e-05
7.03898e-05
7.14464e-05
7.25078e-05
7.35799e-05
7.4642e-05
7.5697e-05
7.67304e-05
7.77487e-05
7.8744e-05
7.97139e-05
8.06549e-05
8.1565e-05
8.24424e-05
8.32839e-05
8.40865e-05
8.48496e-05
8.55702e-05
8.62486e-05
8.68826e-05
8.74734e-05
8.80194e-05
8.85207e-05
8.89767e-05
8.93879e-05
8.97548e-05
9.00774e-05
9.03557e-05
9.05907e-05
9.07821e-05
9.09306e-05
9.1037e-05
9.1102e-05
9.11269e-05
9.11128e-05
9.10601e-05
9.09685e-05
9.08383e-05
9.0669e-05
9.04619e-05
9.0218e-05
8.99404e-05
8.96313e-05
8.92914e-05
8.89204e-05
8.8518e-05
8.80807e-05
8.76095e-05
8.71066e-05
8.6577e-05
8.60268e-05
8.54582e-05
8.4869e-05
8.42555e-05
8.36143e-05
8.29471e-05
8.22593e-05
8.15583e-05
8.08481e-05
8.01294e-05
7.94001e-05
7.86582e-05
7.79047e-05
7.71431e-05
7.63789e-05
7.56145e-05
7.48496e-05
7.40855e-05
7.3327e-05
7.25739e-05
7.18298e-05
7.10959e-05
7.03758e-05
6.96718e-05
6.89871e-05
6.83267e-05
6.76911e-05
6.70799e-05
6.6497e-05
6.59351e-05
6.54096e-05
6.49016e-05
6.44301e-05
6.39889e-05
6.35925e-05
6.32554e-05
6.29758e-05
6.27621e-05
6.2617e-05
6.263e-05
6.27788e-05
6.94718e-05
6.99921e-05
7.06473e-05
7.1521e-05
7.24313e-05
7.3399e-05
7.44375e-05
7.55176e-05
7.66523e-05
7.78124e-05
7.89925e-05
8.01724e-05
8.13579e-05
8.25264e-05
8.36815e-05
8.48081e-05
8.59134e-05
8.6989e-05
8.80326e-05
8.90407e-05
9.00114e-05
9.09433e-05
9.18328e-05
9.2677e-05
9.34756e-05
9.42257e-05
9.49276e-05
9.55793e-05
9.61822e-05
9.67351e-05
9.72381e-05
9.76908e-05
9.8094e-05
9.84481e-05
9.87534e-05
9.90102e-05
9.92195e-05
9.93815e-05
9.94969e-05
9.95668e-05
9.95919e-05
9.95739e-05
9.95138e-05
9.94123e-05
9.92692e-05
9.90852e-05
9.88599e-05
9.85951e-05
9.82921e-05
9.79536e-05
9.7582e-05
9.71781e-05
9.67423e-05
9.62742e-05
9.57713e-05
9.52342e-05
9.46656e-05
9.40711e-05
9.34559e-05
9.2822e-05
9.21677e-05
9.14905e-05
9.07876e-05
9.00611e-05
8.9316e-05
8.85589e-05
8.77939e-05
8.70218e-05
8.62416e-05
8.54518e-05
8.46535e-05
8.38501e-05
8.30472e-05
8.22441e-05
8.14425e-05
8.06448e-05
7.98555e-05
7.9074e-05
7.83039e-05
7.7546e-05
7.6804e-05
7.60799e-05
7.53765e-05
7.46992e-05
7.4048e-05
7.34219e-05
7.2825e-05
7.2249e-05
7.171e-05
7.11873e-05
7.07015e-05
7.02461e-05
6.98375e-05
6.94917e-05
6.92079e-05
6.89959e-05
6.88606e-05
6.89005e-05
6.90937e-05
7.62114e-05
7.67884e-05
7.75331e-05
7.85181e-05
7.95537e-05
8.06486e-05
8.18136e-05
8.3019e-05
8.42776e-05
8.55582e-05
8.68541e-05
8.81437e-05
8.94325e-05
9.06969e-05
9.19408e-05
9.31486e-05
9.43287e-05
9.5472e-05
9.65765e-05
9.76387e-05
9.86571e-05
9.96305e-05
0.000100555
0.000101428
0.00010225
0.000103017
0.00010373
0.000104388
0.000104991
0.00010554
0.000106034
0.000106473
0.000106858
0.00010719
0.000107469
0.000107696
0.000107872
0.000107997
0.000108072
0.000108099
0.000108079
0.000108013
0.000107903
0.000107748
0.000107551
0.000107311
0.000107028
0.000106705
0.000106342
0.000105943
0.00010551
0.000105045
0.000104548
0.000104018
0.000103454
0.000102856
0.000102229
0.000101577
0.000100905
0.000100215
9.95056e-05
9.87758e-05
9.80227e-05
9.72492e-05
9.64599e-05
9.56606e-05
9.48556e-05
9.40454e-05
9.32301e-05
9.24085e-05
9.15821e-05
9.07536e-05
8.99281e-05
8.91015e-05
8.82798e-05
8.74647e-05
8.66598e-05
8.58649e-05
8.50828e-05
8.4314e-05
8.35624e-05
8.28291e-05
8.21169e-05
8.14314e-05
8.07718e-05
8.01372e-05
7.95312e-05
7.89446e-05
7.83942e-05
7.78581e-05
7.73577e-05
7.68871e-05
7.64641e-05
7.61071e-05
7.58156e-05
7.56016e-05
7.54724e-05
7.55351e-05
7.57692e-05
8.33334e-05
8.39543e-05
8.47839e-05
8.58742e-05
8.70315e-05
8.82494e-05
8.95355e-05
9.08594e-05
9.22339e-05
9.3626e-05
9.50275e-05
9.64159e-05
9.77962e-05
9.91442e-05
0.000100464
0.00010174
0.000102982
0.000104179
0.000105331
0.000106434
0.000107487
0.000108489
0.000109436
0.000110326
0.000111157
0.00011193
0.000112643
0.000113296
0.00011389
0.000114424
0.0001149
0.000115316
0.000115675
0.000115977
0.000116222
0.000116413
0.000116549
0.000116632
0.000116663
0.000116643
0.000116573
0.000116457
0.000116294
0.000116086
0.000115834
0.000115538
0.000115199
0.000114819
0.0001144
0.000113945
0.000113456
0.000112935
0.000112382
0.000111798
0.000111181
0.000110533
0.000109857
0.000109158
0.000108441
0.000107708
0.000106958
0.000106189
0.000105401
0.000104597
0.00010378
0.000102955
0.000102128
0.000101298
0.000100466
9.9631e-05
9.8795e-05
9.79602e-05
9.71269e-05
9.6295e-05
9.547e-05
9.46532e-05
9.3848e-05
9.30534e-05
9.22718e-05
9.15033e-05
9.07516e-05
9.00174e-05
8.93032e-05
8.86147e-05
8.79505e-05
8.73096e-05
8.66951e-05
8.60971e-05
8.55332e-05
8.49801e-05
8.44605e-05
8.39688e-05
8.35247e-05
8.31491e-05
8.28422e-05
8.26185e-05
8.24876e-05
8.25651e-05
8.28331e-05
9.08616e-05
9.15103e-05
9.2417e-05
9.36044e-05
9.48768e-05
9.62107e-05
9.76099e-05
9.90434e-05
0.000100523
0.000102016
0.000103511
0.000104986
0.000106445
0.000107863
0.000109245
0.000110576
0.000111865
0.000113104
0.00011429
0.00011542
0.000116495
0.000117513
0.00011847
0.000119364
0.000120196
0.000120963
0.000121666
0.000122304
0.00012288
0.000123392
0.000123841
0.000124228
0.000124554
0.00012482
0.000125027
0.000125176
0.00012527
0.000125307
0.000125291
0.000125223
0.000125105
0.000124938
0.000124724
0.000124465
0.00012416
0.000123812
0.000123422
0.000122992
0.000122522
0.000122018
0.000121482
0.000120914
0.000120316
0.000119688
0.000119031
0.000118345
0.000117635
0.000116905
0.000116158
0.000115399
0.000114625
0.000113836
0.000113033
0.000112216
0.000111391
0.000110562
0.000109732
0.000108903
0.000108075
0.000107247
0.000106421
0.000105598
0.000104774
0.000103954
0.000103142
0.000102338
0.000101546
0.000100763
9.99921e-05
9.92321e-05
9.84864e-05
9.77555e-05
9.70419e-05
9.63508e-05
9.5681e-05
9.50309e-05
9.44033e-05
9.37876e-05
9.32026e-05
9.26236e-05
9.20745e-05
9.15507e-05
9.10738e-05
9.0667e-05
9.03321e-05
9.0086e-05
8.99413e-05
9.00217e-05
9.03125e-05
9.88199e-05
9.94784e-05
0.000100452
0.000101726
0.000103103
0.000104544
0.000106046
0.000107578
0.000109151
0.000110732
0.000112308
0.000113856
0.000115378
0.000116853
0.000118284
0.000119656
0.00012098
0.000122246
0.000123453
0.0001246
0.000125684
0.000126707
0.000127663
0.000128552
0.000129374
0.000130127
0.000130812
0.000131428
0.000131978
0.000132462
0.000132879
0.000133232
0.000133521
0.000133748
0.000133915
0.000134022
0.000134071
0.000134064
0.000134003
0.000133888
0.000133723
0.00013351
0.00013325
0.000132944
0.000132595
0.000132202
0.000131769
0.000131297
0.000130788
0.000130247
0.000129675
0.000129075
0.000128447
0.000127791
0.00012711
0.000126404
0.000125677
0.000124934
0.000124179
0.000123413
0.000122637
0.000121851
0.000121053
0.000120247
0.000119437
0.000118626
0.000117817
0.000117011
0.000116209
0.00011541
0.000114615
0.000113818
0.000113023
0.000112231
0.000111446
0.000110667
0.000109898
0.000109135
0.00010838
0.000107632
0.000106893
0.000106165
0.000105449
0.00010475
0.000104068
0.000103399
0.000102748
0.000102102
0.000101482
0.000100862
0.000100267
9.96943e-05
9.9167e-05
9.87112e-05
9.83302e-05
9.8044e-05
9.78687e-05
9.79357e-05
9.82347e-05
0.000107233
0.000107882
0.000108909
0.000110257
0.000111728
0.000113262
0.000114854
0.000116472
0.000118126
0.000119781
0.000121424
0.000123032
0.000124605
0.000126123
0.000127588
0.00012899
0.000130335
0.000131617
0.000132835
0.000133986
0.00013507
0.000136088
0.000137035
0.000137911
0.000138715
0.000139448
0.000140108
0.000140697
0.000141218
0.000141669
0.000142053
0.000142369
0.000142622
0.00014281
0.000142937
0.000143003
0.000143012
0.000142964
0.000142861
0.000142707
0.000142502
0.00014225
0.000141951
0.00014161
0.000141225
0.000140801
0.000140337
0.000139837
0.000139305
0.000138742
0.000138152
0.000137537
0.000136897
0.000136234
0.00013555
0.000134846
0.000134126
0.000133394
0.000132653
0.000131907
0.000131154
0.000130394
0.000129629
0.000128859
0.000128089
0.000127321
0.000126557
0.000125799
0.000125046
0.000124296
0.00012355
0.000122797
0.000122045
0.000121295
0.000120547
0.000119803
0.000119062
0.000118322
0.000117584
0.000116846
0.00011611
0.000115377
0.000114648
0.00011393
0.000113221
0.000112518
0.000111825
0.000111131
0.000110456
0.000109773
0.000109109
0.000108463
0.000107861
0.000107333
0.000106882
0.000106533
0.000106306
0.000106339
0.000106628
0.000116128
0.000116749
0.000117813
0.00011922
0.000120769
0.000122384
0.000124052
0.000125743
0.000127463
0.000129179
0.000130876
0.000132529
0.000134141
0.000135688
0.000137177
0.000138595
0.000139952
0.000141239
0.000142458
0.000143605
0.000144681
0.000145686
0.000146618
0.000147475
0.000148258
0.000148966
0.000149599
0.00015016
0.00015065
0.000151069
0.000151419
0.000151702
0.000151919
0.000152073
0.000152165
0.000152197
0.000152171
0.000152089
0.000151955
0.00015177
0.000151536
0.000151257
0.000150935
0.000150571
0.000150167
0.000149727
0.000149251
0.000148743
0.000148205
0.000147642
0.000147056
0.000146449
0.000145823
0.000145178
0.000144516
0.00014384
0.000143154
0.00014246
0.000141763
0.000141064
0.000140363
0.00013966
0.000138955
0.000138249
0.000137547
0.000136848
0.000136155
0.000135467
0.000134784
0.000134105
0.000133422
0.000132728
0.000132032
0.000131332
0.00013063
0.000129922
0.00012921
0.00012849
0.000127763
0.000127026
0.000126281
0.000125529
0.000124771
0.000124014
0.000123257
0.000122496
0.000121737
0.000120968
0.000120209
0.000119434
0.000118672
0.000117923
0.000117216
0.000116585
0.000116035
0.000115595
0.00011529
0.000115265
0.000115521
0.000125535
0.000126108
0.000127191
0.000128641
0.000130252
0.000131933
0.000133663
0.000135412
0.000137185
0.000138948
0.000140686
0.000142372
0.00014401
0.000145577
0.000147078
0.000148504
0.000149863
0.000151148
0.00015236
0.000153498
0.000154561
0.00015555
0.000156463
0.000157298
0.000158058
0.000158741
0.000159349
0.000159882
0.000160344
0.000160735
0.000161057
0.000161311
0.000161501
0.000161627
0.000161693
0.0001617
0.000161652
0.00016155
0.000161397
0.000161196
0.000160949
0.000160661
0.000160332
0.000159966
0.000159563
0.000159129
0.000158663
0.000158171
0.000157654
0.000157117
0.000156562
0.000155992
0.000155407
0.00015481
0.000154202
0.000153586
0.000152964
0.000152342
0.00015172
0.0001511
0.000150483
0.000149867
0.000149253
0.000148641
0.000148033
0.00014743
0.000146832
0.000146238
0.000145647
0.000145055
0.000144445
0.000143822
0.00014319
0.000142545
0.000141887
0.000141213
0.000140524
0.000139815
0.000139084
0.000138332
0.000137558
0.000136765
0.000135953
0.00013513
0.000134295
0.000133446
0.000132588
0.00013171
0.000130831
0.000129929
0.000129031
0.000128142
0.000127294
0.000126523
0.00012584
0.000125276
0.000124862
0.000124749
0.000124949
0.000135489
0.000135997
0.000137077
0.000138553
0.000140208
0.000141938
0.000143716
0.000145509
0.000147322
0.000149121
0.000150888
0.000152597
0.000154251
0.000155828
0.000157334
0.000158761
0.000160116
0.000161395
0.000162597
0.000163721
0.000164769
0.000165741
0.000166635
0.000167451
0.00016819
0.000168852
0.000169439
0.00016995
0.000170392
0.000170763
0.000171065
0.000171302
0.000171475
0.000171588
0.000171642
0.000171639
0.000171584
0.000171479
0.000171327
0.00017113
0.000170892
0.000170615
0.000170304
0.00016996
0.000169586
0.000169184
0.000168758
0.000168311
0.000167845
0.000167366
0.000166875
0.000166375
0.000165866
0.000165351
0.000164831
0.00016431
0.00016379
0.000163273
0.000162761
0.000162256
0.000161756
0.00016126
0.000160768
0.000160279
0.000159794
0.000159312
0.000158832
0.000158351
0.000157867
0.000157371
0.000156846
0.000156299
0.000155731
0.000155139
0.000154519
0.000153869
0.000153189
0.000152473
0.000151719
0.000150926
0.000150097
0.000149232
0.000148333
0.000147409
0.000146459
0.000145483
0.000144485
0.000143457
0.000142417
0.000141343
0.000140266
0.000139192
0.00013816
0.000137208
0.00013635
0.000135623
0.000135065
0.000134833
0.000134947
0.000146033
0.000146457
0.000147513
0.000148996
0.000150677
0.00015244
0.000154251
0.000156076
0.000157918
0.000159742
0.000161528
0.000163252
0.000164915
0.000166497
0.000168003
0.000169426
0.000170775
0.000172045
0.000173236
0.000174349
0.000175384
0.000176342
0.000177223
0.000178025
0.00017875
0.000179399
0.000179973
0.000180474
0.000180907
0.000181271
0.000181568
0.000181803
0.000181977
0.000182093
0.000182154
0.000182163
0.000182123
0.000182038
0.00018191
0.000181744
0.000181541
0.000181305
0.000181041
0.00018075
0.000180435
0.0001801
0.000179747
0.00017938
0.000179002
0.000178617
0.000178228
0.000177835
0.000177441
0.000177047
0.000176656
0.000176268
0.000175886
0.000175513
0.000175149
0.000174793
0.000174445
0.000174101
0.000173761
0.000173424
0.000173087
0.000172748
0.000172404
0.000172053
0.000171689
0.00017129
0.000170853
0.000170382
0.000169874
0.000169324
0.000168729
0.000168085
0.000167392
0.000166643
0.000165838
0.000164973
0.000164053
0.000163078
0.000162052
0.000160984
0.000159875
0.000158726
0.000157541
0.000156314
0.000155063
0.000153767
0.00015246
0.000151151
0.000149885
0.000148704
0.000147626
0.000146693
0.00014595
0.000145563
0.000145561
0.000157216
0.000157537
0.000158544
0.000160015
0.000161705
0.000163486
0.000165318
0.000167165
0.000169026
0.000170867
0.000172666
0.0001744
0.000176068
0.000177651
0.000179156
0.000180576
0.00018192
0.000183184
0.000184369
0.000185474
0.000186503
0.000187455
0.000188331
0.00018913
0.000189854
0.000190503
0.00019108
0.000191586
0.000192026
0.000192401
0.000192714
0.000192967
0.000193164
0.000193307
0.000193401
0.000193448
0.000193451
0.000193415
0.000193342
0.000193236
0.000193102
0.000192942
0.00019276
0.000192558
0.00019234
0.00019211
0.000191869
0.000191623
0.000191373
0.000191124
0.000190877
0.000190634
0.000190397
0.000190166
0.000189943
0.00018973
0.000189526
0.000189335
0.000189155
0.000188984
0.00018882
0.00018866
0.0001885
0.000188338
0.00018817
0.000187992
0.000187799
0.000187586
0.000187343
0.000187043
0.000186692
0.000186287
0.000185826
0.000185303
0.000184712
0.00018405
0.000183315
0.000182501
0.000181608
0.000180633
0.000179579
0.00017845
0.00017725
0.000175988
0.00017467
0.000173295
0.000171871
0.00017039
0.000168872
0.000167298
0.000165704
0.000164104
0.000162547
0.000161084
0.000159733
0.000158546
0.000157575
0.000156993
0.000156841
0.000169096
0.000169294
0.000170229
0.000171669
0.000173351
0.000175137
0.000176981
0.00017884
0.000180714
0.000182567
0.000184376
0.000186118
0.000187791
0.000189377
0.000190883
0.000192304
0.000193649
0.000194914
0.000196101
0.00019721
0.000198244
0.000199204
0.000200089
0.000200901
0.00020164
0.000202307
0.000202906
0.000203439
0.00020391
0.00020432
0.000204673
0.000204972
0.00020522
0.00020542
0.000205577
0.000205693
0.000205773
0.00020582
0.000205839
0.000205832
0.000205804
0.000205759
0.000205699
0.000205628
0.00020555
0.000205467
0.000205382
0.000205301
0.000205224
0.000205155
0.000205095
0.000205047
0.00020501
0.000204985
0.000204973
0.000204974
0.000204988
0.000205016
0.000205054
0.0002051
0.000205151
0.0002052
0.000205244
0.000205277
0.000205294
0.000205289
0.000205253
0.00020518
0.000205052
0.000204846
0.000204569
0.000204216
0.000203784
0.000203264
0.00020265
0.000201938
0.000201127
0.000200211
0.000199188
0.000198057
0.000196824
0.00019549
0.000194063
0.000192555
0.000190971
0.000189312
0.00018759
0.000185796
0.000183951
0.000182036
0.000180092
0.000178139
0.000176232
0.000174426
0.000172748
0.000171253
0.000170004
0.000169186
0.000168847
0.000181743
0.000181793
0.000182634
0.000184024
0.000185685
0.000187466
0.000189313
0.00019118
0.000193064
0.000194928
0.000196748
0.0001985
0.000200182
0.000201777
0.000203292
0.000204723
0.000206079
0.000207358
0.000208561
0.000209688
0.000210744
0.000211729
0.000212644
0.000213489
0.000214266
0.000214976
0.000215624
0.000216209
0.000216739
0.000217214
0.000217639
0.000218016
0.000218349
0.000218641
0.000218898
0.000219121
0.000219317
0.000219488
0.000219638
0.000219773
0.000219894
0.000220007
0.000220115
0.000220221
0.000220327
0.000220439
0.000220556
0.000220686
0.000220827
0.000220984
0.000221157
0.000221347
0.000221554
0.000221777
0.000222016
0.00022227
0.000222537
0.000222817
0.000223105
0.000223396
0.000223685
0.000223965
0.000224229
0.000224471
0.000224681
0.000224852
0.000224974
0.00022504
0.000225011
0.000224886
0.000224668
0.000224347
0.000223919
0.000223373
0.000222704
0.000221907
0.000220981
0.000219919
0.000218722
0.000217388
0.000215923
0.000214332
0.000212624
0.000210811
0.000208902
0.000206899
0.000204817
0.000202647
0.000200409
0.000198088
0.000195727
0.000193353
0.00019103
0.00018882
0.000186752
0.000184892
0.000183315
0.000182214
0.000181651
0.000195237
0.000195113
0.000195836
0.000197161
0.000198789
0.000200557
0.000202402
0.000204277
0.000206171
0.000208049
0.000209886
0.000211655
0.000213355
0.00021497
0.000216505
0.00021796
0.000219344
0.000220653
0.000221891
0.000223057
0.000224157
0.000225192
0.000226162
0.000227067
0.00022791
0.000228693
0.000229419
0.000230091
0.000230714
0.00023129
0.000231823
0.000232315
0.000232772
0.000233197
0.000233594
0.000233967
0.000234321
0.000234661
0.000234988
0.000235309
0.000235627
0.000235945
0.000236267
0.000236597
0.000236936
0.000237289
0.000237657
0.000238043
0.000238448
0.000238876
0.000239325
0.000239796
0.000240286
0.000240794
0.000241321
0.000241861
0.000242412
0.000242972
0.000243533
0.000244091
0.000244635
0.000245159
0.000245654
0.000246109
0.000246515
0.00024686
0.000247132
0.000247318
0.000247377
0.000247317
0.000247136
0.000246821
0.000246368
0.000245765