/*--------------------------------*- C++ -*----------------------------------*\
  =========                 |
  \\      /  F ield         | OpenFOAM: The Open Source CFD Toolbox
   \\    /   O peration     | Website:  https://openfoam.org
    \\  /    A nd           | Version:  7
     \\/     M anipulation  |
\*---------------------------------------------------------------------------*/
FoamFile
{
    version     2.0;
    format      ascii;
    class       volScalarField;
    location    "2.47";
    object      p;
}
// * * * * * * * * * * * * * * * * * * * * * * * * * * * * * * * * * * * * * //

dimensions      [0 2 -2 0 0 0 0];

internalField   nonuniform List<scalar> 
14751
(
2.03374e-13
3.74152e-06
7.34569e-06
1.14939e-05
1.53043e-05
1.92105e-05
2.30788e-05
2.68063e-05
3.05231e-05
3.40464e-05
3.75022e-05
4.07273e-05
4.38617e-05
4.67532e-05
4.95172e-05
5.20285e-05
5.43754e-05
5.64914e-05
5.84117e-05
6.01149e-05
6.16118e-05
6.29026e-05
6.39918e-05
6.48785e-05
6.55744e-05
6.60759e-05
6.6397e-05
6.65338e-05
6.65023e-05
6.63001e-05
6.59393e-05
6.5421e-05
6.47556e-05
6.39452e-05
6.2999e-05
6.19191e-05
6.07142e-05
5.9388e-05
5.79457e-05
5.63945e-05
5.47361e-05
5.29798e-05
5.11263e-05
4.91845e-05
4.71543e-05
4.50449e-05
4.28562e-05
4.05988e-05
3.82715e-05
3.5885e-05
3.34404e-05
3.09453e-05
2.84019e-05
2.58172e-05
2.31931e-05
2.05401e-05
1.78594e-05
1.51638e-05
1.24558e-05
9.74551e-06
7.03501e-06
4.33347e-06
1.64562e-06
-1.01648e-06
-3.64479e-06
-6.22861e-06
-8.75813e-06
-1.12283e-05
-1.36238e-05
-1.5942e-05
-1.81646e-05
-2.02891e-05
-2.22929e-05
-2.4177e-05
-2.59175e-05
-2.75178e-05
-2.89464e-05
-3.0211e-05
-3.12827e-05
-3.21656e-05
-3.2836e-05
-3.32877e-05
-3.35168e-05
-3.34977e-05
-3.32215e-05
-3.27137e-05
-3.18835e-05
-3.08878e-05
-2.94907e-05
-2.79684e-05
-2.60772e-05
-2.40128e-05
-2.16933e-05
-1.9106e-05
-1.63798e-05
-1.33174e-05
-1.04167e-05
-6.97412e-06
-3.69339e-06
-5.60877e-09
3.73537e-06
7.33735e-06
1.14815e-05
1.52903e-05
1.91954e-05
2.30621e-05
2.67884e-05
3.05039e-05
3.40261e-05
3.7481e-05
4.07051e-05
4.38384e-05
4.6729e-05
4.9492e-05
5.20028e-05
5.43492e-05
5.64649e-05
5.83851e-05
6.00884e-05
6.15855e-05
6.28767e-05
6.39664e-05
6.48537e-05
6.55503e-05
6.60527e-05
6.63747e-05
6.65124e-05
6.64819e-05
6.62809e-05
6.59212e-05
6.54041e-05
6.47399e-05
6.39308e-05
6.29858e-05
6.19072e-05
6.07037e-05
5.93788e-05
5.79378e-05
5.63879e-05
5.47308e-05
5.29758e-05
5.11235e-05
4.9183e-05
4.71541e-05
4.50462e-05
4.28588e-05
4.06027e-05
3.82766e-05
3.58913e-05
3.34477e-05
3.09538e-05
2.84116e-05
2.58282e-05
2.32057e-05
2.0554e-05
1.78744e-05
1.51797e-05
1.24722e-05
9.76262e-06
7.05332e-06
4.35337e-06
1.66711e-06
-9.93863e-07
-3.62168e-06
-6.20537e-06
-8.73465e-06
-1.12041e-05
-1.35986e-05
-1.59158e-05
-1.81376e-05
-2.02618e-05
-2.22657e-05
-2.41497e-05
-2.58901e-05
-2.74904e-05
-2.89189e-05
-3.01837e-05
-3.12558e-05
-3.21391e-05
-3.28101e-05
-3.32626e-05
-3.34926e-05
-3.34747e-05
-3.31997e-05
-3.26935e-05
-3.1865e-05
-3.0871e-05
-2.9476e-05
-2.79555e-05
-2.60664e-05
-2.40038e-05
-2.16862e-05
-1.91011e-05
-1.63769e-05
-1.33159e-05
-1.04157e-05
-6.97526e-06
-3.69591e-06
-1.47552e-08
3.72731e-06
7.3248e-06
1.14685e-05
1.52762e-05
1.9181e-05
2.30476e-05
2.67735e-05
3.04889e-05
3.40107e-05
3.74653e-05
4.06885e-05
4.38209e-05
4.67101e-05
4.94722e-05
5.1982e-05
5.43277e-05
5.64429e-05
5.83628e-05
6.00659e-05
6.15631e-05
6.28544e-05
6.39445e-05
6.48322e-05
6.55294e-05
6.60324e-05
6.63552e-05
6.64938e-05
6.64643e-05
6.62642e-05
6.59057e-05
6.53896e-05
6.47265e-05
6.39186e-05
6.29748e-05
6.18974e-05
6.06952e-05
5.93715e-05
5.79318e-05
5.63831e-05
5.47273e-05
5.29734e-05
5.11224e-05
4.91831e-05
4.71555e-05
4.50488e-05
4.28626e-05
4.06078e-05
3.82829e-05
3.58987e-05
3.34562e-05
3.09634e-05
2.84224e-05
2.58403e-05
2.3219e-05
2.05686e-05
1.78901e-05
1.51962e-05
1.24895e-05
9.78076e-06
7.0725e-06
4.37384e-06
1.68887e-06
-9.71087e-07
-3.59827e-06
-6.18159e-06
-8.71046e-06
-1.11793e-05
-1.3573e-05
-1.58894e-05
-1.81107e-05
-2.02347e-05
-2.22385e-05
-2.41225e-05
-2.5863e-05
-2.74634e-05
-2.88922e-05
-3.01574e-05
-3.12301e-05
-3.21142e-05
-3.27862e-05
-3.32397e-05
-3.34711e-05
-3.34547e-05
-3.31816e-05
-3.26775e-05
-3.18509e-05
-3.08596e-05
-2.94666e-05
-2.79485e-05
-2.60612e-05
-2.40002e-05
-2.16844e-05
-1.91007e-05
-1.6378e-05
-1.3317e-05
-1.04183e-05
-6.97893e-06
-3.70147e-06
-2.67846e-08
3.71661e-06
7.30793e-06
1.14534e-05
1.52605e-05
1.91658e-05
2.30332e-05
2.67592e-05
3.04753e-05
3.39972e-05
3.7452e-05
4.06742e-05
4.38057e-05
4.66932e-05
4.94541e-05
5.19625e-05
5.43073e-05
5.64216e-05
5.8341e-05
6.00438e-05
6.15408e-05
6.28321e-05
6.39224e-05
6.48105e-05
6.55081e-05
6.60118e-05
6.63354e-05
6.64748e-05
6.64463e-05
6.62473e-05
6.58898e-05
6.5375e-05
6.47131e-05
6.39065e-05
6.2964e-05
6.18879e-05
6.0687e-05
5.93647e-05
5.79264e-05
5.63791e-05
5.47246e-05
5.29721e-05
5.11225e-05
4.91846e-05
4.71583e-05
4.50531e-05
4.28683e-05
4.06149e-05
3.82913e-05
3.59084e-05
3.34672e-05
3.09756e-05
2.84359e-05
2.58552e-05
2.32353e-05
2.05863e-05
1.7909e-05
1.52162e-05
1.25105e-05
9.80271e-06
7.09557e-06
4.39818e-06
1.71448e-06
-9.44389e-07
-3.57079e-06
-6.15355e-06
-8.68189e-06
-1.11502e-05
-1.35431e-05
-1.58589e-05
-1.80798e-05
-2.02035e-05
-2.22073e-05
-2.40915e-05
-2.58321e-05
-2.7433e-05
-2.88623e-05
-3.01283e-05
-3.12019e-05
-3.20872e-05
-3.27606e-05
-3.32157e-05
-3.34491e-05
-3.34349e-05
-3.31641e-05
-3.26631e-05
-3.18389e-05
-3.08513e-05
-2.94605e-05
-2.79453e-05
-2.60598e-05
-2.40005e-05
-2.16865e-05
-1.91039e-05
-1.63823e-05
-1.33201e-05
-1.04236e-05
-6.985e-06
-3.71007e-06
-4.18243e-08
3.70226e-06
7.2864e-06
1.14342e-05
1.52416e-05
1.91474e-05
2.30164e-05
2.67427e-05
3.04601e-05
3.39823e-05
3.74376e-05
4.06588e-05
4.37893e-05
4.66747e-05
4.94342e-05
5.19409e-05
5.42846e-05
5.63979e-05
5.83166e-05
6.00189e-05
6.15156e-05
6.28069e-05
6.38974e-05
6.47858e-05
6.54841e-05
6.59885e-05
6.6313e-05
6.64534e-05
6.64261e-05
6.62282e-05
6.58721e-05
6.53587e-05
6.46983e-05
6.38932e-05
6.29522e-05
6.18777e-05
6.06784e-05
5.93578e-05
5.79211e-05
5.63755e-05
5.47227e-05
5.29719e-05
5.11239e-05
4.91877e-05
4.71631e-05
4.50596e-05
4.28765e-05
4.06247e-05
3.83028e-05
3.59215e-05
3.34819e-05
3.09918e-05
2.84536e-05
2.58746e-05
2.32563e-05
2.0609e-05
1.79332e-05
1.52417e-05
1.25371e-05
9.8305e-06
7.12463e-06
4.42867e-06
1.74638e-06
-9.11247e-07
-3.53673e-06
-6.11883e-06
-8.64659e-06
-1.11143e-05
-1.35066e-05
-1.58218e-05
-1.80422e-05
-2.01658e-05
-2.21696e-05
-2.40541e-05
-2.57952e-05
-2.73968e-05
-2.88269e-05
-3.0094e-05
-3.11689e-05
-3.20559e-05
-3.27313e-05
-3.31885e-05
-3.34246e-05
-3.34134e-05
-3.31456e-05
-3.26485e-05
-3.18272e-05
-3.08443e-05
-2.94561e-05
-2.79444e-05
-2.6061e-05
-2.40037e-05
-2.16917e-05
-1.91102e-05
-1.63896e-05
-1.33257e-05
-1.04319e-05
-6.99388e-06
-3.72233e-06
-5.99312e-08
3.68329e-06
7.26015e-06
1.14105e-05
1.52187e-05
1.91255e-05
2.29964e-05
2.67234e-05
3.04424e-05
3.39653e-05
3.74213e-05
4.06415e-05
4.3771e-05
4.66541e-05
4.94122e-05
5.19171e-05
5.42596e-05
5.63718e-05
5.82897e-05
5.99915e-05
6.1488e-05
6.27793e-05
6.38701e-05
6.4759e-05
6.54579e-05
6.59632e-05
6.62888e-05
6.64304e-05
6.64043e-05
6.62079e-05
6.58534e-05
6.53415e-05
6.46828e-05
6.38795e-05
6.29403e-05
6.18677e-05
6.06702e-05
5.93516e-05
5.79168e-05
5.63732e-05
5.47223e-05
5.29735e-05
5.11274e-05
4.91931e-05
4.71705e-05
4.50689e-05
4.28878e-05
4.0638e-05
3.83179e-05
3.59385e-05
3.35006e-05
3.10123e-05
2.84759e-05
2.58987e-05
2.32822e-05
2.06368e-05
1.79626e-05
1.52727e-05
1.25694e-05
9.86409e-06
7.1596e-06
4.46514e-06
1.78435e-06
-8.71952e-07
-3.49644e-06
-6.07785e-06
-8.60504e-06
-1.10722e-05
-1.34639e-05
-1.57786e-05
-1.79987e-05
-2.01224e-05
-2.21264e-05
-2.40115e-05
-2.57532e-05
-2.73558e-05
-2.87871e-05
-3.00557e-05
-3.11324e-05
-3.20216e-05
-3.26995e-05
-3.31595e-05
-3.33988e-05
-3.33912e-05
-3.31271e-05
-3.26345e-05
-3.18168e-05
-3.08394e-05
-2.94542e-05
-2.79465e-05
-2.60656e-05
-2.40104e-05
-2.17006e-05
-1.91203e-05
-1.64005e-05
-1.33343e-05
-1.04437e-05
-7.00619e-06
-3.7391e-06
-8.09963e-08
3.65897e-06
7.22943e-06
1.13818e-05
1.51917e-05
1.90998e-05
2.2973e-05
2.67013e-05
3.04223e-05
3.39464e-05
3.74034e-05
4.06227e-05
4.37511e-05
4.66321e-05
4.93887e-05
5.18917e-05
5.4233e-05
5.63441e-05
5.82614e-05
5.99628e-05
6.14591e-05
6.27505e-05
6.38417e-05
6.47311e-05
6.54309e-05
6.59372e-05
6.6264e-05
6.64069e-05
6.63825e-05
6.61877e-05
6.58349e-05
6.53248e-05
6.4668e-05
6.38666e-05
6.29295e-05
6.18589e-05
6.06636e-05
5.93471e-05
5.79145e-05
5.6373e-05
5.47243e-05
5.29776e-05
5.11337e-05
4.92016e-05
4.71811e-05
4.50817e-05
4.29027e-05
4.06551e-05
3.83371e-05
3.59596e-05
3.35237e-05
3.10373e-05
2.85028e-05
2.59275e-05
2.3313e-05
2.06696e-05
1.79972e-05
1.53089e-05
1.2607e-05
9.90303e-06
7.19991e-06
4.50694e-06
1.82762e-06
-8.27363e-07
-3.45087e-06
-6.03161e-06
-8.55829e-06
-1.10251e-05
-1.34163e-05
-1.57307e-05
-1.79506e-05
-2.00746e-05
-2.20791e-05
-2.3965e-05
-2.57077e-05
-2.73117e-05
-2.87445e-05
-3.00152e-05
-3.10942e-05
-3.19861e-05
-3.2667e-05
-3.31301e-05
-3.33733e-05
-3.33699e-05
-3.311e-05
-3.26226e-05
-3.1809e-05
-3.08377e-05
-2.9456e-05
-2.79528e-05
-2.60745e-05
-2.40215e-05
-2.17141e-05
-1.91349e-05
-1.64157e-05
-1.33468e-05
-1.04595e-05
-7.02255e-06
-3.76123e-06
-1.04906e-07
3.62841e-06
7.19425e-06
1.13476e-05
1.51602e-05
1.90701e-05
2.29462e-05
2.66763e-05
3.03997e-05
3.39255e-05
3.73837e-05
4.06025e-05
4.373e-05
4.66089e-05
4.93642e-05
5.18653e-05
5.42056e-05
5.63157e-05
5.82325e-05
5.99335e-05
6.14298e-05
6.27215e-05
6.38132e-05
6.47034e-05
6.54043e-05
6.59117e-05
6.624e-05
6.63843e-05
6.63615e-05
6.61686e-05
6.58177e-05
6.53097e-05
6.4655e-05
6.38557e-05
6.29208e-05
6.18525e-05
6.06595e-05
5.93453e-05
5.7915e-05
5.63759e-05
5.47295e-05
5.29852e-05
5.11435e-05
4.92138e-05
4.71955e-05
4.50985e-05
4.29217e-05
4.06764e-05
3.83606e-05
3.59853e-05
3.35514e-05
3.1067e-05
2.85345e-05
2.59612e-05
2.33487e-05
2.07072e-05
1.80367e-05
1.535e-05
1.26496e-05
9.94692e-06
7.24511e-06
4.55353e-06
1.87557e-06
-7.78181e-07
-3.40077e-06
-5.98093e-06
-8.50725e-06
-1.09739e-05
-1.33649e-05
-1.56792e-05
-1.78992e-05
-2.00237e-05
-2.20289e-05
-2.39159e-05
-2.56599e-05
-2.72658e-05
-2.87007e-05
-2.9974e-05
-3.10556e-05
-3.19507e-05
-3.2635e-05
-3.31019e-05
-3.33494e-05
-3.33507e-05
-3.30957e-05
-3.26141e-05
-3.18051e-05
-3.08404e-05
-2.94627e-05
-2.79641e-05
-2.60888e-05
-2.4038e-05
-2.17331e-05
-1.91548e-05
-1.6436e-05
-1.33642e-05
-1.04801e-05
-7.04361e-06
-3.78958e-06
-1.31535e-07
3.59086e-06
7.15463e-06
1.13073e-05
1.51241e-05
1.90363e-05
2.29157e-05
2.66483e-05
3.03746e-05
3.39027e-05
3.73625e-05
4.05811e-05
4.37078e-05
4.6585e-05
4.9339e-05
5.18386e-05
5.4178e-05
5.62874e-05
5.82038e-05
5.99047e-05
6.14011e-05
6.26933e-05
6.37857e-05
6.46768e-05
6.53789e-05
6.58877e-05
6.62176e-05
6.63637e-05
6.63427e-05
6.61518e-05
6.5803e-05
6.52971e-05
6.46447e-05
6.38478e-05
6.29153e-05
6.18493e-05
6.06588e-05
5.9347e-05
5.79192e-05
5.63826e-05
5.47386e-05
5.29967e-05
5.11575e-05
4.92302e-05
4.72143e-05
4.51197e-05
4.29452e-05
4.07023e-05
3.83887e-05
3.60156e-05
3.35838e-05
3.11015e-05
2.8571e-05
2.59997e-05
2.33891e-05
2.07497e-05
1.80809e-05
1.53959e-05
1.26968e-05
9.99541e-06
7.2948e-06
4.60444e-06
1.92767e-06
-7.25021e-07
-3.34684e-06
-5.92657e-06
-8.45271e-06
-1.09194e-05
-1.33105e-05
-1.56251e-05
-1.78455e-05
-1.99707e-05
-2.1977e-05
-2.38654e-05
-2.56112e-05
-2.72196e-05
-2.86571e-05
-2.99333e-05
-3.1018e-05
-3.19167e-05
-3.2605e-05
-3.3076e-05
-3.33285e-05
-3.3335e-05
-3.30855e-05
-3.261e-05
-3.18063e-05
-3.08485e-05
-2.94753e-05
-2.79814e-05
-2.61094e-05
-2.40608e-05
-2.17583e-05
-1.91808e-05
-1.6462e-05
-1.33874e-05
-1.0506e-05
-7.06995e-06
-3.82501e-06
-1.60791e-07
3.54552e-06
7.11056e-06
1.12607e-05
1.50832e-05
1.89985e-05
2.28815e-05
2.66175e-05
3.0347e-05
3.38783e-05
3.73398e-05
4.0559e-05
4.3685e-05
4.6561e-05
4.93138e-05
5.18123e-05
5.41509e-05
5.62598e-05
5.81761e-05
5.98771e-05
6.13739e-05
6.26668e-05
6.37602e-05
6.46525e-05
6.5356e-05
6.58664e-05
6.61981e-05
6.6346e-05
6.63271e-05
6.61383e-05
6.57919e-05
6.52883e-05
6.46383e-05
6.38437e-05
6.29138e-05
6.18503e-05
6.06623e-05
5.93531e-05
5.79278e-05
5.63939e-05
5.47524e-05
5.3013e-05
5.11762e-05
4.92514e-05
4.7238e-05
4.51458e-05
4.29737e-05
4.07331e-05
3.84218e-05
3.60509e-05
3.36212e-05
3.11409e-05
2.86124e-05
2.6043e-05
2.34344e-05
2.07967e-05
1.81298e-05
1.54462e-05
1.27484e-05
1.00482e-05
7.34858e-06
4.65922e-06
1.9834e-06
-6.68468e-07
-3.28972e-06
-5.86923e-06
-8.39543e-06
-1.08625e-05
-1.3254e-05
-1.55691e-05
-1.77903e-05
-1.99167e-05
-2.19244e-05
-2.38147e-05
-2.55629e-05
-2.71743e-05
-2.86147e-05
-2.98942e-05
-3.09826e-05
-3.18854e-05
-3.25781e-05
-3.30538e-05
-3.33117e-05
-3.3324e-05
-3.30804e-05
-3.26115e-05
-3.18137e-05
-3.08629e-05
-2.94948e-05
-2.80056e-05
-2.61372e-05
-2.40907e-05
-2.17906e-05
-1.92137e-05
-1.64945e-05
-1.3417e-05
-1.05379e-05
-7.10217e-06
-3.86829e-06
-1.92594e-07
3.49182e-06
7.06205e-06
1.12076e-05
1.50374e-05
1.89565e-05
2.28436e-05
2.6584e-05
3.03172e-05
3.38525e-05
3.73162e-05
4.05365e-05
4.36621e-05
4.65373e-05
4.92893e-05
5.1787e-05
5.41252e-05
5.6234e-05
5.81504e-05
5.98518e-05
6.13493e-05
6.26432e-05
6.37378e-05
6.46314e-05
6.53366e-05
6.58487e-05
6.61824e-05
6.63323e-05
6.63157e-05
6.61292e-05
6.57851e-05
6.5284e-05
6.46365e-05
6.38445e-05
6.29171e-05
6.18562e-05
6.06709e-05
5.93643e-05
5.79417e-05
5.64103e-05
5.47714e-05
5.30346e-05
5.12003e-05
4.92779e-05
4.7267e-05
4.51771e-05
4.30074e-05
4.07692e-05
3.84602e-05
3.60914e-05
3.36637e-05
3.11854e-05
2.86587e-05
2.60911e-05
2.34843e-05
2.08484e-05
1.8183e-05
1.55008e-05
1.28042e-05
1.01048e-05
7.40606e-06
4.71742e-06
2.04226e-06
-6.09083e-07
-3.23004e-06
-5.8096e-06
-8.33616e-06
-1.08039e-05
-1.31962e-05
-1.55123e-05
-1.77347e-05
-1.98626e-05
-2.18721e-05
-2.37651e-05
-2.55163e-05
-2.71309e-05
-2.85747e-05
-2.98581e-05
-3.09505e-05
-3.18579e-05
-3.25555e-05
-3.30365e-05
-3.33002e-05
-3.33188e-05
-3.30816e-05
-3.26197e-05
-3.18284e-05
-3.08847e-05
-2.95223e-05
-2.80377e-05
-2.61732e-05
-2.41287e-05
-2.18308e-05
-1.92543e-05
-1.65342e-05
-1.3454e-05
-1.05761e-05
-7.14083e-06
-3.92014e-06
-2.26977e-07
3.42925e-06
7.00901e-06
1.11479e-05
1.49867e-05
1.89105e-05
2.28023e-05
2.6548e-05
3.02855e-05
3.38257e-05
3.72919e-05
4.05142e-05
4.36396e-05
4.65147e-05
4.9266e-05
5.17635e-05
5.41016e-05
5.62107e-05
5.81276e-05
5.98298e-05
6.13282e-05
6.26233e-05
6.37195e-05
6.46147e-05
6.53217e-05
6.58358e-05
6.61716e-05
6.63238e-05
6.63095e-05
6.61254e-05
6.57839e-05
6.52852e-05
6.46403e-05
6.3851e-05
6.29263e-05
6.1868e-05
6.06853e-05
5.93813e-05
5.79613e-05
5.64326e-05
5.47963e-05
5.3062e-05
5.12302e-05
4.93102e-05
4.73017e-05
4.52142e-05
4.30468e-05
4.08109e-05
3.8504e-05
3.61372e-05
3.37115e-05
3.1235e-05
2.871e-05
2.61441e-05
2.35389e-05
2.09045e-05
1.82404e-05
1.55595e-05
1.28638e-05
1.01651e-05
7.46687e-06
4.77862e-06
2.10378e-06
-5.47391e-07
-3.16839e-06
-5.74831e-06
-8.27559e-06
-1.07444e-05
-1.31379e-05
-1.54555e-05
-1.76794e-05
-1.98093e-05
-2.18214e-05
-2.37176e-05
-2.54722e-05
-2.70904e-05
-2.85382e-05
-2.98259e-05
-3.0923e-05
-3.18354e-05
-3.25384e-05
-3.30252e-05
-3.32951e-05
-3.33205e-05
-3.30902e-05
-3.26356e-05
-3.18515e-05
-3.09147e-05
-2.95588e-05
-2.80785e-05
-2.62182e-05
-2.41756e-05
-2.18797e-05
-1.93033e-05
-1.65819e-05
-1.34992e-05
-1.06214e-05
-7.18644e-06
-3.98114e-06
-2.64146e-07
3.35749e-06
6.95126e-06
1.10817e-05
1.49312e-05
1.88605e-05
2.27575e-05
2.65099e-05
3.02522e-05
3.37984e-05
3.72676e-05
4.04926e-05
4.36182e-05
4.64938e-05
4.92449e-05
5.17427e-05
5.4081e-05
5.61909e-05
5.81087e-05
5.98119e-05
6.13117e-05
6.26083e-05
6.37062e-05
6.46032e-05
6.53123e-05
6.58286e-05
6.61667e-05
6.63212e-05
6.63094e-05
6.61278e-05
6.57889e-05
6.52929e-05
6.46507e-05
6.3864e-05
6.29419e-05
6.18863e-05
6.07062e-05
5.94049e-05
5.79875e-05
5.64613e-05
5.48276e-05
5.30957e-05
5.12664e-05
4.93488e-05
4.73426e-05
4.52573e-05
4.30922e-05
4.08583e-05
3.85534e-05
3.61886e-05
3.37647e-05
3.12898e-05
2.87664e-05
2.6202e-05
2.35981e-05
2.09649e-05
1.8302e-05
1.56219e-05
1.29269e-05
1.02287e-05
7.53066e-06
4.84243e-06
2.16753e-06
-4.83882e-07
-3.10531e-06
-5.68598e-06
-8.21437e-06
-1.06846e-05
-1.30799e-05
-1.53993e-05
-1.76254e-05
-1.97579e-05
-2.17734e-05
-2.36732e-05
-2.54315e-05
-2.70539e-05
-2.85062e-05
-2.97987e-05
-3.0901e-05
-3.1819e-05
-3.25279e-05
-3.30209e-05
-3.32975e-05
-3.33301e-05
-3.31073e-05
-3.26602e-05
-3.18839e-05
-3.09539e-05
-2.96052e-05
-2.81291e-05
-2.62733e-05
-2.42323e-05
-2.1938e-05
-1.93615e-05
-1.66381e-05
-1.35531e-05
-1.06743e-05
-7.23952e-06
-4.05171e-06
-3.04592e-07
3.27651e-06
6.88864e-06
1.10091e-05
1.48708e-05
1.88066e-05
2.27096e-05
2.64698e-05
3.02177e-05
3.37709e-05
3.72436e-05
4.04724e-05
4.35985e-05
4.64754e-05
4.92265e-05
5.17253e-05
5.40644e-05
5.61754e-05
5.80944e-05
5.97991e-05
6.13006e-05
6.2599e-05
6.36989e-05
6.45981e-05
6.53095e-05
6.58281e-05
6.61687e-05
6.63257e-05
6.63164e-05
6.61375e-05
6.58012e-05
6.53078e-05
6.46683e-05
6.38843e-05
6.29649e-05
6.19119e-05
6.07344e-05
5.94357e-05
5.80209e-05
5.64972e-05
5.48659e-05
5.31364e-05
5.13094e-05
4.93941e-05
4.73901e-05
4.53069e-05
4.31438e-05
4.09119e-05
3.86089e-05
3.62458e-05
3.38235e-05
3.135e-05
2.8828e-05
2.62647e-05
2.36619e-05
2.10296e-05
1.83676e-05
1.56881e-05
1.29934e-05
1.02953e-05
7.59711e-06
4.90849e-06
2.2331e-06
-4.19008e-07
-3.0413e-06
-5.62317e-06
-8.15311e-06
-1.06253e-05
-1.30227e-05
-1.53446e-05
-1.75733e-05
-1.97094e-05
-2.17289e-05
-2.36327e-05
-2.53953e-05
-2.70223e-05
-2.84798e-05
-2.97775e-05
-3.08856e-05
-3.18096e-05
-3.2525e-05
-3.30248e-05
-3.33085e-05
-3.33487e-05
-3.31339e-05
-3.26945e-05
-3.19268e-05
-3.10034e-05
-2.96626e-05
-2.81902e-05
-2.63392e-05
-2.42996e-05
-2.20066e-05
-1.94295e-05
-1.67035e-05
-1.36166e-05
-1.07351e-05
-7.30053e-06
-4.13211e-06
-3.48949e-07
3.18632e-06
6.82078e-06
1.09303e-05
1.48057e-05
1.8749e-05
2.26588e-05
2.64282e-05
3.01824e-05
3.37437e-05
3.72206e-05
4.04541e-05
4.35812e-05
4.64603e-05
4.92118e-05
5.17123e-05
5.40524e-05
5.61652e-05
5.80859e-05
5.97924e-05
6.12959e-05
6.25965e-05
6.36987e-05
6.46003e-05
6.53141e-05
6.58353e-05
6.61785e-05
6.63381e-05
6.63315e-05
6.61552e-05
6.58217e-05
6.5331e-05
6.46941e-05
6.39127e-05
6.29959e-05
6.19455e-05
6.07706e-05
5.94744e-05
5.80621e-05
5.65407e-05
5.49118e-05
5.31845e-05
5.13598e-05
4.94465e-05
4.74445e-05
4.53633e-05
4.3202e-05
4.09718e-05
3.86705e-05
3.63089e-05
3.3888e-05
3.14157e-05
2.88947e-05
2.63323e-05
2.37302e-05
2.10986e-05
1.8437e-05
1.57577e-05
1.30631e-05
1.03647e-05
7.66595e-06
4.97648e-06
2.30012e-06
-3.53178e-07
-2.97683e-06
-5.56037e-06
-8.09238e-06
-1.05669e-05
-1.29672e-05
-1.52919e-05
-1.75242e-05
-1.96645e-05
-2.16885e-05
-2.35967e-05
-2.53642e-05
-2.69965e-05
-2.84597e-05
-2.97633e-05
-3.08777e-05
-3.18083e-05
-3.25307e-05
-3.30377e-05
-3.33289e-05
-3.33773e-05
-3.31709e-05
-3.27395e-05
-3.19809e-05
-3.10639e-05
-2.97316e-05
-2.82628e-05
-2.64167e-05
-2.43783e-05
-2.20862e-05
-1.95082e-05
-1.67788e-05
-1.36901e-05
-1.08045e-05
-7.36991e-06
-4.2224e-06
-3.9838e-07
3.08742e-06
6.74747e-06
1.08456e-05
1.4736e-05
1.86877e-05
2.26054e-05
2.63854e-05
3.01468e-05
3.37175e-05
3.71993e-05
4.04384e-05
4.35671e-05
4.64492e-05
4.92015e-05
5.17044e-05
5.40461e-05
5.61611e-05
5.80839e-05
5.97927e-05
6.12986e-05
6.26017e-05
6.37065e-05
6.46107e-05
6.53272e-05
6.58512e-05
6.6197e-05
6.63594e-05
6.63555e-05
6.6182e-05
6.58511e-05
6.53631e-05
6.47288e-05
6.39501e-05
6.30358e-05
6.19879e-05
6.08155e-05
5.95216e-05
5.81117e-05
5.65926e-05
5.49658e-05
5.32407e-05
5.14179e-05
4.95066e-05
4.75064e-05
4.54268e-05
4.32673e-05
4.10385e-05
3.87386e-05
3.63782e-05
3.39584e-05
3.1487e-05
2.89668e-05
2.64048e-05
2.38032e-05
2.11718e-05
1.85103e-05
1.58308e-05
1.31359e-05
1.04366e-05
7.73692e-06
5.04611e-06
2.36827e-06
-2.8675e-07
-2.91229e-06
-5.49804e-06
-8.03267e-06
-1.05102e-05
-1.29138e-05
-1.5242e-05
-1.74788e-05
-1.96241e-05
-2.1653e-05
-2.35662e-05
-2.53393e-05
-2.69772e-05
-2.84468e-05
-2.97568e-05
-3.08782e-05
-3.18159e-05
-3.25457e-05
-3.30606e-05
-3.33596e-05
-3.34166e-05
-3.32192e-05
-3.2796e-05
-3.20472e-05
-3.11363e-05
-2.98132e-05
-2.83476e-05
-2.65068e-05
-2.44693e-05
-2.21775e-05
-1.95981e-05
-1.68645e-05
-1.37743e-05
-1.08829e-05
-7.44809e-06
-4.32242e-06
-4.54238e-07
2.98019e-06
6.66822e-06
1.07552e-05
1.46618e-05
1.8623e-05
2.25496e-05
2.63416e-05
3.01113e-05
3.36925e-05
3.71801e-05
4.04259e-05
4.35568e-05
4.64427e-05
4.91965e-05
5.17024e-05
5.40463e-05
5.61641e-05
5.80895e-05
5.98009e-05
6.13097e-05
6.26156e-05
6.37232e-05
6.46304e-05
6.53497e-05
6.58766e-05
6.62253e-05
6.63905e-05
6.63893e-05
6.62186e-05
6.58904e-05
6.5405e-05
6.47734e-05
6.39972e-05
6.30854e-05
6.20399e-05
6.08698e-05
5.95782e-05
5.81704e-05
5.66533e-05
5.50286e-05
5.33053e-05
5.14844e-05
4.95747e-05
4.75762e-05
4.5498e-05
4.33398e-05
4.11123e-05
3.88135e-05
3.6454e-05
3.4035e-05
3.15641e-05
2.90443e-05
2.64825e-05
2.38809e-05
2.12492e-05
1.85875e-05
1.59073e-05
1.32116e-05
1.05111e-05
7.80985e-06
5.11717e-06
2.4373e-06
-2.20023e-07
-2.84803e-06
-5.43656e-06
-7.9744e-06
-1.04554e-05
-1.2863e-05
-1.51956e-05
-1.74378e-05
-1.95886e-05
-2.16229e-05
-2.35417e-05
-2.5321e-05
-2.69653e-05
-2.84419e-05
-2.97589e-05
-3.08878e-05
-3.18331e-05
-3.2571e-05
-3.30942e-05
-3.34016e-05
-3.34676e-05
-3.32796e-05
-3.28648e-05
-3.21265e-05
-3.12215e-05
-2.99083e-05
-2.84455e-05
-2.661e-05
-2.45731e-05
-2.22811e-05
-1.96998e-05
-1.69612e-05
-1.38696e-05
-1.09707e-05
-7.5355e-06
-4.43185e-06
-5.18206e-07
2.86542e-06
6.58282e-06
1.06593e-05
1.45831e-05
1.8555e-05
2.24918e-05
2.62972e-05
3.00764e-05
3.36694e-05
3.71636e-05
4.04173e-05
4.3551e-05
4.64418e-05
4.91974e-05
5.17073e-05
5.40538e-05
5.6175e-05
5.81034e-05
5.98181e-05
6.13301e-05
6.26392e-05
6.37499e-05
6.46602e-05
6.53826e-05
6.59126e-05
6.62642e-05
6.64323e-05
6.6434e-05
6.6266e-05
6.59405e-05
6.54577e-05
6.48286e-05
6.40548e-05
6.31454e-05
6.21022e-05
6.09342e-05
5.96446e-05
5.82389e-05
5.67236e-05
5.51008e-05
5.33791e-05
5.15598e-05
4.96515e-05
4.76543e-05
4.55772e-05
4.34202e-05
4.11934e-05
3.88955e-05
3.65365e-05
3.41179e-05
3.16472e-05
2.91274e-05
2.65653e-05
2.39634e-05
2.1331e-05
1.86684e-05
1.59872e-05
1.32901e-05
1.05879e-05
7.88464e-06
5.1895e-06
2.50702e-06
-1.53212e-07
-2.78429e-06
-5.37623e-06
-7.9179e-06
-1.04031e-05
-1.28152e-05
-1.51533e-05
-1.74017e-05
-1.95583e-05
-2.15987e-05
-2.35238e-05
-2.53101e-05
-2.69612e-05
-2.84455e-05
-2.97701e-05
-3.09071e-05
-3.18607e-05
-3.26071e-05
-3.31393e-05
-3.34554e-05
-3.3531e-05
-3.33528e-05
-3.29468e-05
-3.22195e-05
-3.13202e-05
-3.00174e-05
-2.85572e-05
-2.67273e-05
-2.46906e-05
-2.23978e-05
-1.98141e-05
-1.70695e-05
-1.39766e-05
-1.10685e-05
-7.63258e-06
-4.55028e-06
-5.91982e-07
2.74361e-06
6.4908e-06
1.05581e-05
1.45002e-05
1.84837e-05
2.24322e-05
2.62525e-05
3.00424e-05
3.36486e-05
3.71505e-05
4.04132e-05
4.35505e-05
4.64469e-05
4.92051e-05
5.17197e-05
5.40695e-05
5.61948e-05
5.81267e-05
5.9845e-05
6.13607e-05
6.26733e-05
6.37876e-05
6.47013e-05
6.54269e-05
6.59601e-05
6.63147e-05
6.64859e-05
6.64903e-05
6.63252e-05
6.60023e-05
6.55221e-05
6.48954e-05
6.41239e-05
6.32166e-05
6.21755e-05
6.10095e-05
5.97218e-05
5.83178e-05
5.68042e-05
5.51829e-05
5.34626e-05
5.16446e-05
4.97373e-05
4.77413e-05
4.5665e-05
4.35087e-05
4.12824e-05
3.8985e-05
3.66261e-05
3.42076e-05
3.17367e-05
2.92164e-05
2.66536e-05
2.40508e-05
2.14172e-05
1.87534e-05
1.60705e-05
1.33716e-05
1.06671e-05
7.96123e-06
5.26305e-06
2.57735e-06
-8.6441e-08
-2.72125e-06
-5.31724e-06
-7.86341e-06
-1.03533e-05
-1.27709e-05
-1.51154e-05
-1.73708e-05
-1.95336e-05
-2.15809e-05
-2.3513e-05
-2.53068e-05
-2.69656e-05
-2.84582e-05
-2.9791e-05
-3.09369e-05
-3.18993e-05
-3.26549e-05
-3.31966e-05
-3.35219e-05
-3.36074e-05
-3.34397e-05
-3.30427e-05
-3.2327e-05
-3.14333e-05
-3.01414e-05
-2.86836e-05
-2.68592e-05
-2.48225e-05
-2.25283e-05
-1.99415e-05
-1.71901e-05
-1.40957e-05
-1.11768e-05
-7.73977e-06
-4.67725e-06
-6.77319e-07
2.61537e-06
6.39197e-06
1.04516e-05
1.44128e-05
1.84094e-05
2.23709e-05
2.62077e-05
3.00098e-05
3.36305e-05
3.71412e-05
4.04141e-05
4.35558e-05
4.6459e-05
4.92203e-05
5.17406e-05
5.40942e-05
5.62242e-05
5.81603e-05
5.98827e-05
6.14025e-05
6.27191e-05
6.3837e-05
6.47544e-05
6.54835e-05
6.60202e-05
6.63778e-05
6.65521e-05
6.65594e-05
6.6397e-05
6.60767e-05
6.55989e-05
6.49745e-05
6.42052e-05
6.32999e-05
6.22607e-05
6.10964e-05
5.98104e-05
5.84079e-05
5.68957e-05
5.52757e-05
5.35564e-05
5.17395e-05
4.98329e-05
4.78376e-05
4.57617e-05
4.36059e-05
4.13797e-05
3.90823e-05
3.67232e-05
3.43043e-05
3.18327e-05
2.93115e-05
2.67475e-05
2.41434e-05
2.15081e-05
1.88425e-05
1.61574e-05
1.34562e-05
1.07487e-05
8.03969e-06
5.33785e-06
2.64828e-06
-1.9733e-08
-2.65895e-06
-5.25968e-06
-7.81103e-06
-1.03063e-05
-1.27305e-05
-1.50823e-05
-1.7345e-05
-1.95148e-05
-2.15698e-05
-2.35095e-05
-2.53117e-05
-2.69786e-05
-2.84804e-05
-2.98221e-05
-3.09775e-05
-3.19493e-05
-3.27148e-05
-3.32666e-05
-3.36016e-05
-3.36976e-05
-3.35408e-05
-3.31532e-05
-3.24496e-05
-3.15616e-05
-3.0281e-05
-2.88254e-05
-2.70066e-05
-2.49695e-05
-2.26733e-05
-2.00828e-05
-1.73235e-05
-1.42275e-05
-1.12962e-05
-7.85758e-06
-4.81238e-06
-7.75605e-07
2.48089e-06
6.28598e-06
1.03398e-05
1.43211e-05
1.8332e-05
2.23082e-05
2.61631e-05
2.99789e-05
3.36155e-05
3.71363e-05
4.04205e-05
4.35677e-05
4.64785e-05
4.92438e-05
5.17705e-05
5.41287e-05
5.62641e-05
5.82049e-05
5.9932e-05
6.14564e-05
6.27773e-05
6.38993e-05
6.48207e-05
6.55534e-05
6.60937e-05
6.64545e-05
6.6632e-05
6.6642e-05
6.64824e-05
6.61646e-05
6.56892e-05
6.50669e-05
6.42996e-05
6.33961e-05
6.23586e-05
6.11959e-05
5.99112e-05
5.851e-05
5.69987e-05
5.53798e-05
5.36612e-05
5.1845e-05
4.99389e-05
4.79439e-05
4.5868e-05
4.37122e-05
4.14857e-05
3.9188e-05
3.68282e-05
3.44085e-05
3.19357e-05
2.94132e-05
2.68475e-05
2.42416e-05
2.16039e-05
1.89361e-05
1.62482e-05
1.3544e-05
1.0833e-05
8.12017e-06
5.41401e-06
2.71991e-06
4.69862e-08
-2.59735e-06
-5.20353e-06
-7.76079e-06
-1.02622e-05
-1.26942e-05
-1.50541e-05
-1.73245e-05
-1.9502e-05
-2.15654e-05
-2.35136e-05
-2.53249e-05
-2.70008e-05
-2.85124e-05
-2.98637e-05
-3.10294e-05
-3.20113e-05
-3.27873e-05
-3.33499e-05
-3.36952e-05
-3.38022e-05
-3.36568e-05
-3.32789e-05
-3.2588e-05
-3.17057e-05
-3.04368e-05
-2.89834e-05
-2.71702e-05
-2.51324e-05
-2.28334e-05
-2.02387e-05
-1.74705e-05
-1.43725e-05
-1.14271e-05
-7.98653e-06
-4.95547e-06
-8.87904e-07
2.34011e-06
6.17259e-06
1.02225e-05
1.42249e-05
1.82515e-05
2.22441e-05
2.61189e-05
2.99499e-05
3.36041e-05
3.71363e-05
4.04332e-05
4.35867e-05
4.65062e-05
4.92763e-05
5.18104e-05
5.41739e-05
5.63154e-05
5.82615e-05
5.99939e-05
6.15234e-05
6.2849e-05
6.39755e-05
6.49012e-05
6.56376e-05
6.61816e-05
6.65457e-05
6.67265e-05
6.67393e-05
6.65825e-05
6.62669e-05
6.57938e-05
6.51735e-05
6.44081e-05
6.35061e-05
6.24701e-05
6.13086e-05
6.0025e-05
5.86248e-05
5.71142e-05
5.5496e-05
5.37778e-05
5.19619e-05
5.00557e-05
4.80607e-05
4.59845e-05
4.38283e-05
4.1601e-05
3.93025e-05
3.69416e-05
3.45206e-05
3.20462e-05
2.95219e-05
2.69539e-05
2.43456e-05
2.17051e-05
1.90343e-05
1.63431e-05
1.36353e-05
1.09202e-05
8.20291e-06
5.49178e-06
2.79244e-06
1.13884e-07
-2.53632e-06
-5.1487e-06
-7.7126e-06
-1.02213e-05
-1.26619e-05
-1.50304e-05
-1.73093e-05
-1.94954e-05
-2.1568e-05
-2.35254e-05
-2.53467e-05
-2.70323e-05
-2.85545e-05
-2.99162e-05
-3.10929e-05
-3.20857e-05
-3.28728e-05
-3.34469e-05
-3.38032e-05
-3.39217e-05
-3.37884e-05
-3.34207e-05
-3.2743e-05
-3.18666e-05
-3.06097e-05
-2.91584e-05
-2.73507e-05
-2.5312e-05
-2.30096e-05
-2.04099e-05
-1.76319e-05
-1.45313e-05
-1.15704e-05
-8.12721e-06
-5.10665e-06
-1.01475e-06
2.1926e-06
6.0515e-06
1.00993e-05
1.4124e-05
1.81681e-05
2.21788e-05
2.60752e-05
2.99232e-05
3.35965e-05
3.71416e-05
4.04524e-05
4.36135e-05
4.65427e-05
4.93185e-05
5.1861e-05
5.42305e-05
5.6379e-05
5.8331e-05
6.00693e-05
6.16044e-05
6.29352e-05
6.40664e-05
6.49967e-05
6.57372e-05
6.62851e-05
6.66525e-05
6.68366e-05
6.68522e-05
6.6698e-05
6.63848e-05
6.59137e-05
6.52952e-05
6.45314e-05
6.36308e-05
6.2596e-05
6.14354e-05
6.01526e-05
5.87531e-05
5.72429e-05
5.56249e-05
5.39067e-05
5.20908e-05
5.01842e-05
4.81888e-05
4.61118e-05
4.39548e-05
4.17263e-05
3.94266e-05
3.7064e-05
3.46412e-05
3.21647e-05
2.96379e-05
2.70672e-05
2.44559e-05
2.1812e-05
1.91378e-05
1.64426e-05
1.37306e-05
1.10107e-05
8.28824e-06
5.57143e-06
2.86614e-06
1.81199e-07
-2.47563e-06
-5.095e-06
-7.66629e-06
-1.01835e-05
-1.26336e-05
-1.50112e-05
-1.72994e-05
-1.94949e-05
-2.15776e-05
-2.35451e-05
-2.53771e-05
-2.70733e-05
-2.8607e-05
-2.99798e-05
-3.11685e-05
-3.21729e-05
-3.2972e-05
-3.35583e-05
-3.39261e-05
-3.40568e-05
-3.39361e-05
-3.35791e-05
-3.29151e-05
-3.2045e-05
-3.08005e-05
-2.93514e-05
-2.75491e-05
-2.55091e-05
-2.32027e-05
-2.05972e-05
-1.78083e-05
-1.47046e-05
-1.17268e-05
-8.28027e-06
-5.26631e-06
-1.15648e-06
2.0376e-06
5.92228e-06
9.97017e-06
1.40183e-05
1.80814e-05
2.21121e-05
2.6032e-05
2.9899e-05
3.3593e-05
3.71526e-05
4.04787e-05
4.36486e-05
4.65886e-05
4.93711e-05
5.19229e-05
5.42994e-05
5.64556e-05
5.84143e-05
6.01591e-05
6.17004e-05
6.30368e-05
6.41732e-05
6.51083e-05
6.58531e-05
6.64051e-05
6.67759e-05
6.69634e-05
6.69818e-05
6.68301e-05
6.6519e-05
6.605e-05
6.5433e-05
6.46707e-05
6.37711e-05
6.27373e-05
6.15773e-05
6.02949e-05
5.88957e-05
5.73855e-05
5.57675e-05
5.40489e-05
5.22325e-05
5.03251e-05
4.83288e-05
4.62505e-05
4.40923e-05
4.1862e-05
3.95606e-05
3.7196e-05
3.47708e-05
3.22916e-05
2.9762e-05
2.71879e-05
2.45731e-05
2.19252e-05
1.92469e-05
1.65471e-05
1.38302e-05
1.11048e-05
8.37651e-06
5.65331e-06
2.9413e-06
2.49213e-07
-2.41506e-06
-5.0422e-06
-7.62179e-06
-1.01487e-05
-1.26091e-05
-1.49963e-05
-1.72948e-05
-1.95005e-05
-2.15943e-05
-2.35727e-05
-2.54164e-05
-2.7124e-05
-2.867e-05
-3.0055e-05
-3.12564e-05
-3.22732e-05
-3.30851e-05
-3.36844e-05
-3.40646e-05
-3.42081e-05
-3.41006e-05
-3.3755e-05
-3.31052e-05
-3.22417e-05
-3.10099e-05
-2.95632e-05
-2.77663e-05
-2.57247e-05
-2.34136e-05
-2.08017e-05
-1.80008e-05
-1.48931e-05
-1.1897e-05
-8.44645e-06
-5.43514e-06
-1.31313e-06
1.87424e-06
5.78453e-06
9.83448e-06
1.39073e-05
1.79915e-05
2.20441e-05
2.59894e-05
2.98773e-05
3.35938e-05
3.71697e-05
4.05126e-05
4.36925e-05