/*--------------------------------*- C++ -*----------------------------------*\
| =========                 |                                                 |
| \\      /  F ield         | OpenFOAM: The Open Source CFD Toolbox           |
|  \\    /   O peration     | Version:  2306                                  |
|   \\  /    A nd           | Website:  www.openfoam.com                      |
|    \\/     M anipulation  |                                                 |
\*---------------------------------------------------------------------------*/
// * * * * * * * * * * * * * * * * * * * * * * * * * * * * * * * * * * * * * //
FoamFile
{
    version         2;
    format          ascii;
    class           volTensorField;
    location        "0";
    object          Q_S;
}

dimensions      [ 0 0 0 0 0 0 0 ];

internalField   nonuniform List<tensor> 
14751
(
(0.707277 0.706936 -1.74898e-25 -0.706936 0.707277 -1.18562e-23 -8.38148e-24 8.38553e-24 1)
(0.707293 0.70692 3.34849e-23 -0.70692 0.707293 1.2057e-23 8.51163e-24 -8.51611e-24 1)
(0.707286 0.706928 -1.02228e-24 -0.706928 0.707286 2.38619e-23 1.6869e-23 -1.68775e-23 1)
(0.707339 0.706874 -3.23214e-25 -0.706874 0.707339 3.39425e-23 2.39932e-23 -2.4009e-23 1)
(0.70736 0.706853 2.54713e-22 -0.706853 0.70736 -8.0782e-26 -1.76515e-25 1.76642e-25 1)
(0.707373 0.70684 6.43395e-22 -0.70684 0.707373 -1.4036e-23 -1.02323e-23 1.024e-23 1)
(0.707396 0.706817 1.2739e-27 -0.706817 0.707396 -8.15846e-25 -5.76655e-25 5.77127e-25 1)
(0.707405 0.706808 -1.35229e-23 -0.706808 0.707405 -7.75399e-23 -5.47986e-23 5.48449e-23 1)
(0.70742 0.706793 -1.69283e-23 -0.706793 0.70742 -7.36461e-23 -5.20431e-23 5.20893e-23 1)
(0.707428 0.706785 2.67906e-23 -0.706785 0.707428 9.85173e-23 6.96152e-23 -6.96786e-23 1)
(0.707437 0.706776 -6.48656e-22 -0.706776 0.707437 7.69977e-23 5.47965e-23 -5.48478e-23 1)
(0.707438 0.706775 6.53178e-22 -0.706775 0.707438 -8.09211e-23 -5.75743e-23 5.76284e-23 1)
(0.707443 0.706771 3.54765e-23 -0.706771 0.707443 6.59664e-23 4.66024e-23 -4.66467e-23 1)
(0.707442 0.706772 -3.7401e-23 -0.706772 0.707442 -8.37955e-23 -5.92024e-23 5.92585e-23 1)
(0.707443 0.70677 -3.92528e-24 -0.70677 0.707443 -2.58886e-23 -1.8295e-23 1.83125e-23 1)
(0.707438 0.706775 8.36779e-24 -0.706775 0.707438 5.84984e-23 4.13404e-23 -4.13792e-23 1)
(0.707433 0.70678 -1.96118e-21 -0.70678 0.707433 -2.12886e-24 -4.00451e-25 4.00821e-25 1)
(0.707426 0.706787 1.53159e-21 -0.706787 0.707426 2.94473e-23 1.99694e-23 -1.99875e-23 1)
(0.707418 0.706795 -2.14216e-23 -0.706795 0.707418 -2.96516e-23 -2.09462e-23 2.09647e-23 1)
(0.707409 0.706805 1.09819e-21 -0.706805 0.707409 1.51241e-24 5.01848e-25 -5.02277e-25 1)
(0.707397 0.706816 1.13131e-21 -0.706816 0.707397 -2.29371e-24 -2.18158e-24 2.18338e-24 1)
(0.707385 0.706828 -6.97728e-23 -0.706828 0.707385 -9.29071e-23 -6.56363e-23 6.56881e-23 1)
(0.707373 0.706841 -1.71822e-21 -0.706841 0.707373 9.87702e-23 7.05875e-23 -7.06406e-23 1)
(0.707359 0.706855 5.6604e-27 -0.706855 0.707359 -3.15122e-24 -2.22745e-24 2.22904e-24 1)
(0.707345 0.706869 -6.10732e-22 -0.706869 0.707345 1.29705e-24 1.16045e-24 -1.16123e-24 1)
(0.70733 0.706884 6.43225e-22 -0.706884 0.70733 4.68818e-23 3.29005e-23 -3.29213e-23 1)
(0.707315 0.706899 -3.15386e-23 -0.706899 0.707315 -5.01726e-23 -3.5456e-23 3.54769e-23 1)
(0.707299 0.706914 -6.1984e-22 -0.706914 0.707299 1.40282e-24 1.18817e-24 -1.18882e-24 1)
(0.707283 0.70693 1.86054e-21 -0.70693 0.707283 -4.20031e-25 -8.34702e-25 8.3512e-25 1)
(0.707268 0.706946 1.2053e-21 -0.706946 0.707268 -4.37369e-23 -3.12344e-23 3.12486e-23 1)
(0.707252 0.706962 6.35902e-23 -0.706962 0.707252 9.70527e-23 6.85977e-23 -6.86258e-23 1)
(0.707236 0.706978 -3.17551e-23 -0.706978 0.707236 -5.19665e-23 -3.67326e-23 3.67461e-23 1)
(0.70722 0.706994 1.20764e-21 -0.706994 0.70722 2.44683e-24 1.51617e-24 -1.51666e-24 1)
(0.707204 0.707009 2.95915e-22 -0.707009 0.707204 1.65419e-25 7.27408e-26 -7.27609e-26 1)
(0.707189 0.707025 -3.10589e-22 -0.707025 0.707189 -2.35893e-23 -1.66403e-23 1.66442e-23 1)
(0.707173 0.70704 5.9083e-22 -0.70704 0.707173 2.52253e-23 1.7779e-23 -1.77823e-23 1)
(0.707158 0.707055 5.6366e-22 -0.707055 0.707158 -1.47828e-24 -1.08439e-24 1.08455e-24 1)
(0.707143 0.70707 -1.42498e-23 -0.70707 0.707143 -2.36109e-23 -1.6694e-23 1.66957e-23 1)
(0.707129 0.707085 4.18127e-22 -0.707085 0.707129 2.47761e-23 1.75109e-23 -1.7512e-23 1)
(0.707114 0.707099 -3.03771e-24 -0.707099 0.707114 -1.25815e-23 -8.89638e-24 8.89657e-24 1)
(0.7071 0.707114 -4.93662e-22 -0.707114 0.7071 1.22354e-23 8.63655e-24 -8.63638e-24 1)
(0.707086 0.707128 2.37089e-22 -0.707128 0.707086 -1.22438e-23 -8.64482e-24 8.6443e-24 1)
(0.707072 0.707141 -2.89918e-22 -0.707141 0.707072 1.24114e-23 8.75374e-24 -8.75288e-24 1)
(0.707059 0.707155 -6.01528e-23 -0.707155 0.707059 -5.67669e-24 -4.0204e-24 4.01986e-24 1)
(0.707046 0.707167 2.20641e-22 -0.707167 0.707046 1.22329e-23 8.67776e-24 -8.67627e-24 1)
(0.707034 0.707179 2.35252e-23 -0.707179 0.707034 -3.40082e-24 -2.40164e-24 2.40114e-24 1)
(0.707023 0.707191 -1.46904e-22 -0.707191 0.707023 -2.48729e-24 -1.7828e-24 1.78238e-24 1)
(0.707011 0.707202 8.05658e-23 -0.707202 0.707011 4.26996e-26 4.48348e-26 -4.48227e-26 1)
(0.706999 0.707215 -3.51915e-23 -0.707215 0.706999 2.04236e-25 1.37318e-25 -1.37276e-25 1)
(0.706987 0.707227 2.66065e-24 -0.707227 0.706987 1.55873e-25 1.10833e-25 -1.10796e-25 1)
(0.706975 0.707239 -9.60555e-24 -0.707239 0.706975 -1.8847e-24 -1.33529e-24 1.33479e-24 1)
(0.706963 0.70725 9.44227e-24 -0.70725 0.706963 1.63336e-24 1.1577e-24 -1.15723e-24 1)
(0.706953 0.70726 -6.14836e-23 -0.70726 0.706953 6.03327e-24 4.24975e-24 -4.2479e-24 1)
(0.706945 0.707269 5.55385e-23 -0.707269 0.706945 -6.19364e-24 -4.36417e-24 4.36216e-24 1)
(0.706937 0.707277 -2.37266e-29 -0.707277 0.706937 -3.42181e-26 -2.42017e-26 2.419e-26 1)
(0.706929 0.707284 1.88648e-23 -0.707284 0.706929 -1.20203e-23 -8.49577e-24 8.49151e-24 1)
(0.70692 0.707294 -1.6895e-23 -0.707294 0.70692 2.44088e-23 1.72585e-23 -1.72494e-23 1)
(0.706909 0.707305 6.42824e-23 -0.707305 0.706909 -1.2857e-23 -9.07097e-24 9.06589e-24 1)
(0.706897 0.707317 -1.81412e-26 -0.707317 0.706897 -4.51367e-25 -3.19266e-25 3.19077e-25 1)
(0.706887 0.707326 -1.91263e-24 -0.707326 0.706887 -2.42656e-23 -1.71645e-23 1.71538e-23 1)
(0.706881 0.707333 3.19423e-24 -0.707333 0.706881 4.8737e-23 3.44746e-23 -3.44525e-23 1)
(0.706878 0.707336 -1.28509e-24 -0.707336 0.706878 -2.44318e-23 -1.7282e-23 1.72708e-23 1)
(0.706875 0.707339 1.5751e-23 -0.707339 0.706875 8.41589e-26 6.59623e-26 -6.59191e-26 1)
(0.706871 0.707343 -9.22589e-25 -0.707343 0.706871 -2.48148e-23 -1.7553e-23 1.75412e-23 1)
(0.706863 0.707351 5.74622e-25 -0.707351 0.706863 -4.128e-25 -2.91748e-25 2.91547e-25 1)
(0.706854 0.707359 -1.08882e-22 -0.707359 0.706854 7.27074e-23 5.13816e-23 -5.13448e-23 1)
(0.706847 0.707367 3.2306e-24 -0.707367 0.706847 -4.74237e-23 -3.35444e-23 3.35198e-23 1)
(0.706843 0.707371 5.72166e-23 -0.707371 0.706843 -4.91923e-23 -3.47704e-23 3.47444e-23 1)
(0.706842 0.707371 4.41735e-24 -0.707371 0.706842 4.98508e-23 3.52651e-23 -3.52387e-23 1)
(0.706843 0.707371 -6.11867e-23 -0.707371 0.706843 3.27115e-25 2.02992e-25 -2.02841e-25 1)
(0.706843 0.707371 2.99446e-22 -0.707371 0.706843 -1.9583e-25 8.89697e-30 -8.89033e-30 1)
(0.706841 0.707372 -1.74999e-22 -0.707372 0.706841 1.22627e-25 5.45701e-27 -5.45292e-27 1)
(0.70684 0.707373 3.64661e-22 -0.707373 0.70684 -1.13726e-24 -6.34119e-25 6.33642e-25 1)
(0.70684 0.707373 -3.79372e-22 -0.707373 0.70684 -6.61494e-25 -6.45411e-25 6.44924e-25 1)
(0.706842 0.707372 -2.03538e-22 -0.707372 0.706842 1.06954e-25 -1.90706e-26 1.90563e-26 1)
(0.706844 0.70737 -1.36715e-25 -0.70737 0.706844 5.2598e-25 3.71999e-25 -3.71723e-25 1)
(0.706849 0.707365 -2.40728e-23 -0.707365 0.706849 9.80782e-23 6.93663e-23 -6.93156e-23 1)
(0.706854 0.70736 2.39152e-23 -0.70736 0.706854 -9.61568e-23 -6.80069e-23 6.79583e-23 1)
(0.70686 0.707353 -2.54837e-23 -0.707353 0.70686 9.67174e-23 6.84025e-23 -6.83548e-23 1)
(0.706867 0.707346 2.84995e-22 -0.707346 0.706867 -9.4719e-23 -6.68811e-23 6.68358e-23 1)
(0.706876 0.707338 7.87257e-22 -0.707338 0.706876 -3.5665e-24 -2.2095e-24 2.20806e-24 1)
(0.706886 0.707328 -5.30694e-22 -0.707328 0.706886 -1.54636e-24 -1.29519e-24 1.29438e-24 1)
(0.706895 0.707318 1.06079e-21 -0.707318 0.706895 -5.63373e-25 -1.52597e-26 1.52506e-26 1)
(0.706908 0.707306 1.58971e-21 -0.707306 0.706908 -7.5526e-25 2.36142e-27 -2.36009e-27 1)
(0.706922 0.707292 2.70137e-27 -0.707292 0.706922 1.34326e-24 9.50079e-25 -9.49581e-25 1)
(0.706936 0.707277 1.05623e-21 -0.707277 0.706936 -9.9054e-23 -6.97598e-23 6.97262e-23 1)
(0.706956 0.707258 -1.54709e-21 -0.707258 0.706956 1.90719e-22 1.345e-22 -1.34442e-22 1)
(0.706969 0.707245 -4.77062e-22 -0.707245 0.706969 4.32329e-24 2.95282e-24 -2.95167e-24 1)
(0.706996 0.707217 4.74675e-22 -0.707217 0.706996 -9.51825e-23 -6.72309e-23 6.72098e-23 1)
(0.707013 0.7072 -4.51714e-22 -0.7072 0.707013 -1.17582e-24 -8.94051e-25 8.93815e-25 1)
(0.707041 0.707173 -2.14608e-25 -0.707173 0.707041 3.86506e-24 2.73324e-24 -2.73273e-24 1)
(0.707064 0.707149 1.5692e-24 -0.707149 0.707064 -2.86977e-23 -2.02935e-23 2.02911e-23 1)
(0.707088 0.707125 1.4068e-24 -0.707125 0.707088 -2.94052e-23 -2.07932e-23 2.07921e-23 1)
(0.707117 0.707096 -7.14953e-23 -0.707096 0.707117 3.03952e-23 2.14956e-23 -2.14962e-23 1)
(0.707149 0.707065 7.14798e-23 -0.707065 0.707149 -3.04986e-23 -2.15723e-23 2.15748e-23 1)
(0.707188 0.707026 -1.70794e-24 -0.707026 0.707188 5.77796e-23 4.0852e-23 -4.08613e-23 1)
(0.707191 0.707022 3.33474e-25 -0.707022 0.707191 -1.4202e-23 -1.00412e-23 1.00436e-23 1)
(0.707226 0.706987 -1.04226e-26 -0.706987 0.707226 -5.38767e-26 -3.80877e-26 3.81006e-26 1)
(0.707243 0.706971 4.76474e-25 -0.706971 0.707243 -9.57027e-27 -6.89815e-27 6.9008e-27 1)
(0.707779 0.706434 5.06712e-25 -0.706434 0.707779 5.67656e-24 4.00942e-24 -4.01705e-24 1)
(0.707812 0.706401 -1.01954e-22 -0.706401 0.707812 7.6016e-21 5.36992e-21 -5.38065e-21 1)
(0.707841 0.706372 8.24478e-24 -0.706372 0.707841 -4.03659e-22 -2.85146e-22 2.8574e-22 1)
(0.708008 0.706205 -1.98868e-21 -0.706205 0.708008 -1.26964e-22 -8.59297e-23 8.6149e-23 1)
(0.708111 0.706101 -6.55684e-22 -0.706101 0.708111 1.44649e-20 1.02151e-20 -1.02442e-20 1)
(0.708162 0.70605 -1.63091e-21 -0.70605 0.708162 2.86721e-20 2.02476e-20 -2.03082e-20 1)
(0.708246 0.705965 1.10175e-21 -0.705965 0.708246 -1.09995e-22 -8.03322e-23 8.05918e-23 1)
(0.708294 0.705918 -2.33282e-21 -0.705918 0.708294 7.56791e-23 5.93769e-23 -5.95767e-23 1)
(0.708348 0.705863 -4.12304e-21 -0.705863 0.708348 6.7488e-23 5.86506e-23 -5.88571e-23 1)
(0.708389 0.705822 -6.22103e-21 -0.705822 0.708389 -1.43885e-22 -8.42716e-23 8.45781e-23 1)
(0.708424 0.705787 -1.95867e-22 -0.705787 0.708424 -1.23517e-20 -8.71712e-21 8.74969e-21 1)
(0.708443 0.705769 1.94835e-22 -0.705769 0.708443 1.27073e-20 8.96781e-21 -9.00179e-21 1)
(0.708463 0.705748 4.11514e-21 -0.705748 0.708463 -2.64465e-23 -3.08082e-23 3.09267e-23 1)
(0.708474 0.705737 -4.13112e-21 -0.705737 0.708474 -5.74936e-23 -2.82302e-23 2.83397e-23 1)
(0.708482 0.705729 3.24099e-23 -0.705729 0.708482 8.04605e-23 5.66859e-23 -5.69071e-23 1)
(0.708475 0.705736 -9.92222e-21 -0.705736 0.708475 -5.65681e-22 -3.69457e-22 3.70891e-22 1)
(0.708462 0.705749 4.72344e-21 -0.705749 0.708462 -2.82101e-20 -1.99233e-20 1.99999e-20 1)
(0.708443 0.705768 5.76659e-21 -0.705768 0.708443 2.25769e-20 1.59171e-20 -1.59774e-20 1)
(0.708416 0.705795 -1.12898e-20 -0.705795 0.708416 1.44567e-23 4.27505e-23 -4.29092e-23 1)
(0.708383 0.705828 -1.14452e-20 -0.705828 0.708383 1.2754e-20 9.0344e-21 -9.0671e-21 1)
(0.708343 0.705869 -2.67381e-21 -0.705869 0.708343 1.57625e-20 1.11335e-20 -1.11726e-20 1)
(0.708299 0.705912 6.40485e-21 -0.705912 0.708299 -4.81173e-22 -3.56597e-22 3.57803e-22 1)
(0.708251 0.705961 8.8213e-21 -0.705961 0.708251 -2.22619e-20 -1.57385e-20 1.57895e-20 1)
(0.708198 0.706014 -4.55801e-24 -0.706014 0.708198 2.28287e-22 1.61185e-22 -1.61683e-22 1)
(0.708142 0.70607 -2.00628e-22 -0.70607 0.708142 -6.18235e-21 -4.3647e-21 4.37752e-21 1)
(0.708083 0.706129 -9.90906e-21 -0.706129 0.708083 6.44319e-21 4.5714e-21 -4.58406e-21 1)
(0.708022 0.70619 -3.27304e-21 -0.70619 0.708022 -2.51611e-22 -1.70952e-22 1.71396e-22 1)
(0.707958 0.706255 -2.23117e-22 -0.706255 0.707958 -5.96127e-21 -4.20975e-21 4.2199e-21 1)
(0.707893 0.70632 -2.74539e-21 -0.70632 0.707893 2.11405e-20 1.49368e-20 -1.49701e-20 1)
(0.707827 0.706386 -2.86092e-21 -0.706386 0.707827 1.40423e-20 9.92397e-21 -9.94422e-21 1)
(0.70776 0.706453 -6.98517e-21 -0.706453 0.70776 -2.62889e-22 -1.75296e-22 1.75621e-22 1)
(0.707692 0.706521 8.97378e-23 -0.706521 0.707692 2.43113e-22 1.71644e-22 -1.71928e-22 1)
(0.707624 0.70659 -9.60458e-21 -0.70659 0.707624 1.45143e-20 1.02671e-20 -1.02821e-20 1)
(0.707555 0.706658 1.18126e-22 -0.706658 0.707555 2.88257e-21 2.03687e-21 -2.03946e-21 1)
(0.707488 0.706726 -7.50091e-23 -0.706726 0.707488 -3.14643e-21 -2.2236e-21 2.226e-21 1)
(0.70742 0.706793 5.02645e-21 -0.706793 0.70742 7.43703e-21 5.25266e-21 -5.25732e-21 1)
(0.707354 0.70686 4.98023e-21 -0.70686 0.707354 7.14804e-21 5.04964e-21 -5.05317e-21 1)
(0.707288 0.706925 8.0666e-22 -0.706925 0.707288 -3.24443e-23 -2.33081e-23 2.332e-23 1)
(0.707223 0.706991 -2.14605e-21 -0.706991 0.707223 5.66841e-21 4.00819e-21 -4.00951e-21 1)
(0.707159 0.707055 2.21315e-23 -0.707055 0.707159 -1.86295e-22 -1.31725e-22 1.31744e-22 1)
(0.707095 0.707118 1.18907e-21 -0.707118 0.707095 -7.23115e-21 -5.11332e-21 5.11315e-21 1)
(0.707032 0.707181 -2.63168e-21 -0.707181 0.707032 3.25776e-21 2.30356e-21 -2.30308e-21 1)
(0.706971 0.707243 5.15104e-22 -0.707243 0.706971 -4.50922e-21 -3.18899e-21 3.18777e-21 1)
(0.706912 0.707302 -1.77385e-23 -0.707302 0.706912 -6.98783e-22 -4.94257e-22 4.93984e-22 1)
(0.706854 0.707359 -8.285e-22 -0.707359 0.706854 3.66307e-21 2.5907e-21 -2.58885e-21 1)
(0.706799 0.707414 2.94245e-23 -0.707414 0.706799 3.27459e-22 2.31667e-22 -2.31466e-22 1)
(0.706745 0.707468 -7.41974e-22 -0.707468 0.706745 -2.61613e-21 -1.85138e-21 1.84949e-21 1)
(0.706692 0.707521 6.24971e-22 -0.707521 0.706692 1.5364e-21 1.08757e-21 -1.0863e-21 1)
(0.706638 0.707575 2.26487e-22 -0.707575 0.706638 -7.23099e-22 -5.11425e-22 5.10747e-22 1)
(0.706583 0.70763 2.86616e-23 -0.70763 0.706583 5.55508e-23 3.93409e-23 -3.92828e-23 1)
(0.70653 0.707683 -2.99762e-23 -0.707683 0.70653 -1.99863e-22 -1.41476e-22 1.41246e-22 1)
(0.706479 0.707734 -9.10368e-23 -0.707734 0.706479 1.89222e-22 1.33798e-22 -1.33561e-22 1)
(0.706433 0.70778 -4.78301e-22 -0.70778 0.706433 -1.80862e-21 -1.28079e-21 1.27835e-21 1)
(0.706392 0.707821 5.18249e-22 -0.707821 0.706392 1.83063e-21 1.29655e-21 -1.29393e-21 1)
(0.706355 0.707858 -1.36528e-22 -0.707858 0.706355 -7.0968e-24 -5.24414e-24 5.233e-24 1)
(0.706318 0.707894 1.52848e-22 -0.707894 0.706318 7.98132e-22 5.65254e-22 -5.63995e-22 1)
(0.706277 0.707936 -2.26707e-22 -0.707936 0.706277 -7.87683e-22 -5.58036e-22 5.56728e-22 1)
(0.70623 0.707982 2.27205e-22 -0.707982 0.70623 3.62973e-21 2.57021e-21 -2.56385e-21 1)
(0.706182 0.70803 -1.68955e-22 -0.70803 0.706182 -1.17722e-23 -8.67131e-24 8.64869e-24 1)
(0.706141 0.708071 5.52929e-24 -0.708071 0.706141 -2.16218e-26 -3.81852e-27 3.80811e-27 1)
(0.706111 0.708101 5.98355e-23 -0.708101 0.706111 -1.77055e-25 3.15646e-27 -3.14759e-27 1)
(0.706092 0.70812 -1.37593e-22 -0.70812 0.706092 3.65105e-24 2.28258e-24 -2.27604e-24 1)
(0.706077 0.708135 -9.30366e-23 -0.708135 0.706077 1.04072e-20 7.36951e-21 -7.34809e-21 1)
(0.706056 0.708156 -1.7797e-23 -0.708156 0.706056 -3.16505e-21 -2.24139e-21 2.23474e-21 1)
(0.706027 0.708185 1.13257e-22 -0.708185 0.706027 -2.13169e-23 -1.48295e-23 1.47843e-23 1)
(0.705994 0.708217 -5.73576e-22 -0.708217 0.705994 1.43819e-20 1.01841e-20 -1.01521e-20 1)
(0.705967 0.708245 1.64085e-22 -0.708245 0.705967 2.94308e-23 2.125e-23 -2.11816e-23 1)
(0.70595 0.708261 1.02778e-21 -0.708261 0.70595 -3.17295e-21 -2.2447e-21 2.23737e-21 1)
(0.705946 0.708266 1.93067e-23 -0.708266 0.705946 -5.25949e-23 -3.72024e-23 3.70805e-23 1)
(0.705946 0.708265 2.87822e-21 -0.708265 0.705946 3.18744e-21 2.26485e-21 -2.25743e-21 1)
(0.705947 0.708265 -7.41618e-22 -0.708265 0.705947 -1.433e-20 -1.01513e-20 1.01181e-20 1)
(0.705944 0.708268 -4.79983e-23 -0.708268 0.705944 6.32779e-21 4.48164e-21 -4.46694e-21 1)
(0.705943 0.708268 1.13403e-21 -0.708268 0.705943 -1.26068e-20 -8.92613e-21 8.89682e-21 1)
(0.705946 0.708266 3.1105e-21 -0.708266 0.705946 1.41024e-20 9.99616e-21 -9.96341e-21 1)
(0.705954 0.708257 5.61088e-21 -0.708257 0.705954 6.30128e-21 4.47707e-21 -4.46251e-21 1)
(0.705968 0.708244 1.78879e-24 -0.708244 0.705968 3.37699e-23 2.39218e-23 -2.38449e-23 1)
(0.705989 0.708222 6.8594e-23 -0.708222 0.705989 -2.78741e-25 -2.93354e-26 2.92429e-26 1)
(0.706015 0.708197 -6.80956e-23 -0.708197 0.706015 2.3052e-25 -2.7008e-30 2.69248e-30 1)
(0.706045 0.708167 -5.30774e-21 -0.708167 0.706045 6.57532e-23 3.41687e-23 -3.40663e-23 1)
(0.706079 0.708133 -3.76996e-24 -0.708133 0.706079 -6.13049e-21 -4.34122e-21 4.32862e-21 1)
(0.706118 0.708094 -2.61397e-21 -0.708094 0.706118 -2.23592e-20 -1.58381e-20 1.57939e-20 1)
(0.706163 0.708049 -1.24759e-22 -0.708049 0.706163 1.26111e-20 8.92901e-21 -8.90522e-21 1)
(0.706209 0.708004 -8.23653e-21 -0.708004 0.706209 -2.79699e-20 -1.98192e-20 1.97689e-20 1)
(0.706265 0.707948 3.16092e-21 -0.707948 0.706265 -4.11537e-20 -2.91287e-20 2.90595e-20 1)
(0.706327 0.707886 -8.33303e-21 -0.707886 0.706327 -8.27278e-23 -7.3105e-23 7.2944e-23 1)
(0.706395 0.707818 -2.5451e-21 -0.707818 0.706395 -2.87643e-20 -2.03639e-20 2.0323e-20 1)
(0.706475 0.707738 1.04916e-20 -0.707738 0.706475 4.07904e-20 2.8884e-20 -2.88324e-20 1)
(0.706547 0.707666 2.48634e-21 -0.707666 0.706547 1.63571e-20 1.15786e-20 -1.15602e-20 1)
(0.706649 0.707564 -2.36501e-21 -0.707564 0.706649 -1.258e-20 -8.90366e-21 8.89215e-21 1)
(0.706736 0.707478 8.05459e-21 -0.707478 0.706736 1.24817e-20 8.83754e-21 -8.82826e-21 1)
(0.706841 0.707372 -5.43689e-21 -0.707372 0.706841 7.31147e-23 4.81598e-23 -4.81237e-23 1)
(0.706944 0.70727 -1.35105e-23 -0.70727 0.706944 8.25628e-23 5.83884e-23 -5.83615e-23 1)
(0.707043 0.70717 3.58724e-21 -0.70717 0.707043 7.16699e-23 5.14564e-23 -5.14472e-23 1)
(0.707157 0.707057 3.17499e-21 -0.707057 0.707157 3.09715e-21 2.18978e-21 -2.19009e-21 1)
(0.707284 0.70693 2.73091e-21 -0.70693 0.707284 -3.07834e-21 -2.17702e-21 2.17811e-21 1)
(0.707411 0.706802 1.50461e-23 -0.706802 0.707411 -1.79598e-22 -1.26949e-22 1.27058e-22 1)
(0.707457 0.706756 -2.96935e-24 -0.706756 0.707457 4.13624e-23 2.92351e-23 -2.92642e-23 1)
(0.707565 0.706648 2.9398e-22 -0.706648 0.707565 2.13607e-24 1.24843e-24 -1.25006e-24 1)
(0.707647 0.706566 -1.02612e-24 -0.706566 0.707647 -1.14434e-22 -8.0854e-23 8.09777e-23 1)
(0.708168 0.706044 2.02848e-26 -0.706044 0.708168 -6.5459e-24 -4.62173e-24 4.63564e-24 1)
(0.708191 0.706021 5.36791e-22 -0.706021 0.708191 -9.21361e-21 -6.50616e-21 6.52615e-21 1)
(0.708332 0.705879 2.2857e-23 -0.705879 0.708332 9.32184e-22 6.57953e-22 -6.60239e-22 1)
(0.708564 0.705646 -1.84883e-21 -0.705646 0.708564 -7.92059e-20 -5.5886e-20 5.61171e-20 1)
(0.708759 0.705451 -6.23499e-21 -0.705451 0.708759 -1.60694e-20 -1.13155e-20 1.13685e-20 1)
(0.708871 0.705338 -2.15501e-21 -0.705338 0.708871 -3.1954e-20 -2.25308e-20 2.26436e-20 1)
(0.709016 0.705192 -8.2688e-21 -0.705192 0.709016 1.78461e-20 1.26165e-20 -1.26849e-20 1)
(0.709121 0.705086 -7.05621e-21 -0.705086 0.709121 -3.63487e-20 -2.56005e-20 2.5747e-20 1)
(0.709224 0.704983 -1.10618e-20 -0.704983 0.709224 -6.08032e-20 -4.28185e-20 4.30761e-20 1)
(0.709311 0.704895 9.12446e-21 -0.704895 0.709311 -7.79349e-20 -5.49762e-20 5.53207e-20 1)
(0.70938 0.704827 -1.51316e-20 -0.704827 0.70938 3.72119e-22 3.30901e-22 -3.33039e-22 1)
(0.709431 0.704775 1.63926e-20 -0.704775 0.709431 4.06855e-22 2.1054e-22 -2.11931e-22 1)
(0.709474 0.704732 -4.10873e-21 -0.704732 0.709474 3.5021e-20 2.46998e-20 -2.4866e-20 1)
(0.709506 0.704699 -1.34243e-20 -0.704699 0.709506 -3.60164e-20 -2.53164e-20 2.5489e-20 1)
(0.709526 0.704679 1.39348e-20 -0.704679 0.709526 -3.35824e-22 -3.03874e-22 3.05964e-22 1)
(0.709526 0.704679 1.43694e-20 -0.704679 0.709526 -7.68818e-20 -5.42464e-20 5.46195e-20 1)
(0.709512 0.704694 6.90731e-21 -0.704694 0.709512 3.24269e-20 2.28179e-20 -2.29739e-20 1)
(0.709488 0.704718 -1.57811e-20 -0.704718 0.709488 4.45923e-20 3.14999e-20 -3.17131e-20 1)
(0.709448 0.704758 1.07943e-20 -0.704758 0.709448 -7.82476e-20 -5.5196e-20 5.55633e-20 1)
(0.709398 0.704808 7.23605e-21 -0.704808 0.709398 -7.61707e-20 -5.37188e-20 5.40686e-20 1)
(0.709336 0.704871 1.39049e-20 -0.704871 0.709336 -1.20534e-20 -8.55783e-21 8.61203e-21 1)
(0.709266 0.704941 -2.43885e-20 -0.704941 0.709266 4.2554e-20 3.0103e-20 -3.02877e-20 1)
(0.709187 0.70502 5.57781e-22 -0.70502 0.709187 4.79048e-20 3.37715e-20 -3.39712e-20 1)
(0.7091 0.705108 2.59713e-23 -0.705108 0.7091 -7.59196e-22 -5.35418e-22 5.3845e-22 1)
(0.709007 0.705201 2.83126e-20 -0.705201 0.709007 -6.52671e-22 -5.67385e-22 5.70447e-22 1)
(0.708908 0.705301 7.00943e-21 -0.705301 0.708908 -5.9227e-20 -4.1798e-20 4.20117e-20 1)
(0.708804 0.705406 3.02095e-21 -0.705406 0.708804 -1.66109e-20 -1.17276e-20 1.17841e-20 1)
(0.708694 0.705516 2.14892e-21 -0.705516 0.708694 8.69619e-24 -6.52093e-25 6.5503e-25 1)
(0.708582 0.705629 2.01193e-20 -0.705629 0.708582 -1.55244e-20 -1.10135e-20 1.10596e-20 1)
(0.708467 0.705743 1.21659e-20 -0.705743 0.708467 -1.554e-20 -1.10002e-20 1.10427e-20 1)
(0.708351 0.705861 -6.46173e-22 -0.705861 0.708351 -3.77345e-20 -2.66337e-20 2.67277e-20 1)
(0.708232 0.70598 3.34233e-21 -0.70598 0.708232 -2.49741e-22 -1.83788e-22 1.84374e-22 1)
(0.708113 0.7061 4.64514e-21 -0.7061 0.708113 -5.3221e-20 -3.75886e-20 3.76958e-20 1)
(0.707993 0.70622 -7.55465e-21 -0.70622 0.707993 8.01709e-22 5.79477e-22 -5.80932e-22 1)
(0.707873 0.70634 1.71004e-20 -0.70634 0.707873 4.24073e-22 2.73534e-22 -2.74128e-22 1)
(0.707753 0.70646 -2.04372e-20 -0.70646 0.707753 3.06245e-20 2.16612e-20 -2.17008e-20 1)
(0.707635 0.706579 -7.64181e-21 -0.706579 0.707635 2.99144e-20 2.11449e-20 -2.11765e-20 1)
(0.707517 0.706696 1.36802e-20 -0.706696 0.707517 3.74564e-21 2.63593e-21 -2.63899e-21 1)
(0.707401 0.706812 -3.16404e-21 -0.706812 0.707401 -1.19751e-20 -8.46235e-21 8.4694e-21 1)
(0.707287 0.706926 -1.53124e-23 -0.706926 0.707287 3.01641e-22 2.13243e-22 -2.13352e-22 1)
(0.707174 0.70704 5.55348e-22 -0.70704 0.707174 7.36962e-21 5.21054e-21 -5.21153e-21 1)
(0.707062 0.707151 2.86725e-21 -0.707151 0.707062 -1.89477e-20 -1.33986e-20 1.33969e-20 1)
(0.706953 0.707261 -4.05142e-21 -0.707261 0.706953 4.01919e-21 2.84135e-21 -2.84012e-21 1)
(0.706846 0.707368 2.01739e-22 -0.707368 0.706846 -1.2851e-22 -9.07974e-23 9.07304e-23 1)
(0.706741 0.707473 -8.66761e-22 -0.707473 0.706741 -5.93135e-21 -4.1969e-21 4.19256e-21 1)
(0.706638 0.707575 -8.58202e-23 -0.707575 0.706638 1.41143e-23 9.90631e-24 -9.8932e-24 1)
(0.706538 0.707675 4.21181e-22 -0.707675 0.706538 -6.41266e-21 -4.5376e-21 4.53031e-21 1)
(0.70644 0.707773 -7.09325e-22 -0.707773 0.70644 5.44165e-21 3.8505e-21 -3.84325e-21 1)
(0.706343 0.707869 -8.12763e-23 -0.707869 0.706343 2.24419e-21 1.58847e-21 -1.58504e-21 1)
(0.706248 0.707964 -5.29395e-24 -0.707964 0.706248 2.45649e-22 1.73901e-22 -1.7348e-22 1)
(0.706156 0.708057 -4.83713e-22 -0.708057 0.706156 -2.75089e-22 -1.95698e-22 1.95173e-22 1)
(0.706066 0.708146 5.34518e-23 -0.708146 0.706066 -1.10372e-21 -7.81484e-22 7.79188e-22 1)
(0.70598 0.708232 8.45008e-22 -0.708232 0.70598 -6.39268e-21 -4.5256e-21 4.51121e-21 1)
(0.705898 0.708313 -7.48455e-22 -0.708313 0.705898 7.52484e-21 5.32814e-21 -5.30997e-21 1)
(0.70582 0.708391 -2.29273e-23 -0.708391 0.70582 -2.164e-21 -1.53302e-21 1.52745e-21 1)
(0.705746 0.708465 -5.02165e-23 -0.708465 0.705746 2.11755e-21 1.50007e-21 -1.49432e-21 1)
(0.705671 0.708539 1.749e-21 -0.708539 0.705671 -4.26944e-21 -3.02006e-21 3.00783e-21 1)
(0.705598 0.708613 -5.20441e-22 -0.708613 0.705598 4.75707e-21 3.36935e-21 -3.35502e-21 1)
(0.705526 0.708684 2.91984e-22 -0.708684 0.705526 -4.25239e-21 -3.01268e-21 2.99925e-21 1)
(0.705459 0.708751 9.2431e-22 -0.708751 0.705459 1.50487e-23 1.37066e-23 -1.36429e-23 1)
(0.705399 0.708811 2.52351e-23 -0.708811 0.705399 4.24909e-21 3.01189e-21 -2.99739e-21 1)
(0.705346 0.708863 -9.6263e-22 -0.708863 0.705346 -1.27595e-20 -9.04811e-21 9.00322e-21 1)
(0.705298 0.708911 4.5995e-23 -0.708911 0.705298 -2.7857e-20 -1.9748e-20 1.96474e-20 1)
(0.705254 0.708955 -3.34654e-23 -0.708955 0.705254 -8.43111e-21 -5.9774e-21 5.9462e-21 1)
(0.705211 0.708998 1.95947e-22 -0.708998 0.705211 -8.55678e-21 -6.06599e-21 6.03359e-21 1)
(0.705169 0.709039 4.65975e-22 -0.709039 0.705169 3.93207e-20 2.78817e-20 -2.77296e-20 1)
(0.705133 0.709075 3.17076e-22 -0.709075 0.705133 -8.31704e-21 -5.89616e-21 5.86337e-21 1)
(0.705103 0.709105 -1.23659e-21 -0.709105 0.705103 -3.7333e-20 -2.6478e-20 2.63285e-20 1)
(0.705082 0.709126 6.26581e-22 -0.709126 0.705082 1.46688e-22 1.06552e-22 -1.05945e-22 1)
(0.705069 0.709139 -5.36232e-21 -0.709139 0.705069 -7.47228e-20 -5.30107e-20 5.27064e-20 1)
(0.705061 0.709147 -7.3151e-21 -0.709147 0.705061 1.47837e-20 1.0454e-20 -1.03937e-20 1)
(0.705058 0.70915 6.84701e-21 -0.70915 0.705058 1.09427e-22 1.05591e-22 -1.04981e-22 1)
(0.70506 0.709147 -8.95338e-21 -0.709147 0.70506 -1.67551e-20 -1.19184e-20 1.18497e-20 1)
(0.705068 0.709139 3.37047e-21 -0.709139 0.705068 -5.54928e-20 -3.93384e-20 3.91126e-20 1)
(0.705083 0.709124 -1.4915e-21 -0.709124 0.705083 -9.21064e-20 -6.53209e-20 6.49487e-20 1)
(0.705106 0.709102 9.42374e-21 -0.709102 0.705106 -4.85273e-22 -3.06484e-22 3.04756e-22 1)
(0.705139 0.70907 0 -0.70907 0.705139 0 0 0 1)
(0.705179 0.709029 -1.59487e-23 -0.709029 0.705179 -4.16372e-22 -2.95281e-22 2.93678e-22 1)
(0.705229 0.70898 5.12239e-21 -0.70898 0.705229 7.52814e-20 5.33922e-20 -5.31097e-20 1)
(0.705285 0.708924 7.25266e-21 -0.708924 0.705285 1.62111e-22 1.41282e-22 -1.40557e-22 1)
(0.705352 0.708857 -1.30753e-23 -0.708857 0.705352 3.03788e-20 2.15342e-20 -2.14277e-20 1)
(0.705427 0.708783 -1.04933e-21 -0.708783 0.705427 -4.29395e-22 -3.07867e-22 3.06409e-22 1)
(0.705506 0.708704 7.35758e-21 -0.708704 0.705506 1.06634e-19 7.55954e-20 -7.52542e-20 1)
(0.7056 0.708611 -1.36205e-20 -0.708611 0.7056 -4.53976e-20 -3.22102e-20 3.20733e-20 1)
(0.705704 0.708507 7.96056e-21 -0.708507 0.705704 1.10659e-19 7.84249e-20 -7.81147e-20 1)
(0.705822 0.70839 -8.91148e-21 -0.70839 0.705822 3.24243e-20 2.29462e-20 -2.2863e-20 1)
(0.705951 0.70826 2.83001e-21 -0.70826 0.705951 -1.42161e-19 -1.00681e-19 1.00353e-19 1)
(0.706081 0.708131 -8.62004e-21 -0.708131 0.706081 -3.2005e-20 -2.26813e-20 2.26157e-20 1)
(0.706243 0.707969 -3.97487e-21 -0.707969 0.706243 3.5634e-20 2.52209e-20 -2.51594e-20 1)
(0.706398 0.707815 8.88339e-21 -0.707815 0.706398 -1.30646e-19 -9.24608e-20 9.22758e-20 1)
(0.706571 0.707642 6.16468e-21 -0.707642 0.706571 9.48694e-20 6.71402e-20 -6.70385e-20 1)
(0.706744 0.707469 -2.05633e-21 -0.707469 0.706744 6.49148e-22 4.57765e-22 -4.57295e-22 1)
(0.706916 0.707298 2.97335e-21 -0.707298 0.706916 -7.81088e-20 -5.52451e-20 5.52152e-20 1)
(0.707105 0.707109 4.47189e-21 -0.707109 0.707105 -7.86774e-20 -5.87956e-20 5.24711e-20 1)
(0.70731 0.706904 -2.8106e-21 -0.706904 0.70731 -7.91235e-20 -5.59315e-20 5.59636e-20 1)
(0.707499 0.706714 -4.52135e-21 -0.706714 0.707499 -2.00355e-22 -1.38146e-22 1.383e-22 1)
(0.707609 0.706605 2.14724e-24 -0.706605 0.707609 2.05132e-23 1.44925e-23 -1.45131e-23 1)
(0.707777 0.706436 -2.54003e-22 -0.706436 0.707777 -1.98852e-20 -1.40473e-20 1.4074e-20 1)
(0.70792 0.706293 -1.8768e-24 -0.706293 0.70792 1.05846e-22 7.47617e-23 -7.49339e-23 1)
(0.708674 0.705536 1.07461e-25 -0.705536 0.708674 4.62723e-23 3.26464e-23 -3.27916e-23 1)
(0.708666 0.705544 -8.70988e-22 -0.705544 0.708666 1.02642e-19 7.24211e-20 -7.27415e-20 1)
(0.708962 0.705247 -5.24603e-21 -0.705247 0.708962 1.30371e-21 9.39063e-22 -9.44009e-22 1)
(0.709211 0.704996 7.34171e-21 -0.704996 0.709211 -1.19026e-19 -8.39433e-20 8.44452e-20 1)
(0.709504 0.704701 1.34051e-20 -0.704701 0.709504 -2.07051e-19 -1.45973e-19 1.46968e-19 1)
(0.709682 0.704522 -1.25218e-20 -0.704522 0.709682 -2.92225e-22 -1.41575e-22 1.42612e-22 1)
(0.709882 0.704321 7.86572e-21 -0.704321 0.709882 -2.07038e-19 -1.45865e-19 1.47016e-19 1)
(0.710048 0.704154 3.08218e-20 -0.704154 0.710048 -1.58122e-19 -1.11523e-19 1.12457e-19 1)
(0.710191 0.704009 2.02736e-20 -0.704009 0.710191 -2.12158e-19 -1.49486e-19 1.50799e-19 1)
(0.710325 0.703874 1.43806e-20 -0.703874 0.710325 1.35395e-19 9.52084e-20 -9.60811e-20 1)
(0.71042 0.703778 2.89657e-20 -0.703778 0.71042 -2.51076e-19 -1.76893e-19 1.78563e-19 1)
(0.710504 0.703693 -8.82598e-21 -0.703693 0.710504 2.5281e-19 1.77961e-19 -1.79683e-19 1)
(0.710564 0.703633 2.81652e-20 -0.703633 0.710564 -4.96272e-20 -3.5113e-20 3.54589e-20 1)
(0.710616 0.70358 5.02744e-20 -0.70358 0.710616 -1.53488e-19 -1.08343e-19 1.09426e-19 1)
(0.71064 0.703556 -4.83515e-20 -0.703556 0.71064 1.57273e-19 1.1099e-19 -1.12107e-19 1)
(0.710644 0.703552 2.32918e-20 -0.703552 0.710644 1.32426e-19 9.30045e-20 -9.39421e-20 1)
(0.710622 0.703574 -1.70302e-20 -0.703574 0.710622 -2.28569e-21 -1.48906e-21 1.50398e-21 1)
(0.710587 0.703609 -7.28686e-21 -0.703609 0.710587 -8.46559e-20 -5.95142e-20 6.01044e-20 1)
(0.710529 0.703668 1.487e-20 -0.703668 0.710529 8.73091e-20 6.13354e-20 -6.19334e-20 1)
(0.710455 0.703742 6.29442e-20 -0.703742 0.710455 8.60961e-20 6.017e-20 -6.0744e-20 1)
(0.710365 0.703833 -6.87919e-20 -0.703833 0.710365 1.49252e-19 1.05494e-19 -1.06473e-19 1)
(0.710262 0.703937 6.63744e-20 -0.703937 0.710262 -1.92151e-19 -1.35679e-19 1.36898e-19 1)
(0.710146 0.704054 -6.22441e-21 -0.704054 0.710146 -4.4231e-20 -3.11034e-20 3.13725e-20 1)
(0.710018 0.704183 -6.56802e-21 -0.704183 0.710018 2.76545e-21 1.98543e-21 -2.00188e-21 1)
(0.709881 0.704322 9.58006e-22 -0.704322 0.709881 1.98082e-19 1.39508e-19 -1.40609e-19 1)
(0.709735 0.704469 1.34461e-20 -0.704469 0.709735 5.88088e-20 4.13587e-20 -4.16678e-20 1)