/*--------------------------------*- C++ -*----------------------------------*\
| =========                 |                                                 |
| \\      /  F ield         | OpenFOAM: The Open Source CFD Toolbox           |
|  \\    /   O peration     | Version:  2306                                  |
|   \\  /    A nd           | Website:  www.openfoam.com                      |
|    \\/     M anipulation  |                                                 |
\*---------------------------------------------------------------------------*/
// * * * * * * * * * * * * * * * * * * * * * * * * * * * * * * * * * * * * * //
FoamFile
{
    version         2;
    format          ascii;
    class           volSymmTensorField;
    location        "0";
    object          Rdns;
}

dimensions      [ 0 2 -2 0 0 0 0 ];

internalField   nonuniform List<symmTensor> 
14751
(
(9.09955e-07 1.26917e-08 0 1.27995e-09 0 3.10957e-07)
(9.11454e-07 1.28566e-08 0 1.30815e-09 0 3.14836e-07)
(9.12878e-07 1.30035e-08 0 1.3386e-09 0 3.18887e-07)
(9.14431e-07 1.31775e-08 0 1.3742e-09 0 3.22858e-07)
(9.1553e-07 1.33358e-08 0 1.41036e-09 0 3.26261e-07)
(9.16193e-07 1.34623e-08 0 1.44329e-09 0 3.29397e-07)
(9.166e-07 1.35559e-08 0 1.47159e-09 0 3.32493e-07)
(9.1702e-07 1.36448e-08 0 1.4986e-09 0 3.35874e-07)
(9.18042e-07 1.37319e-08 0 1.53058e-09 0 3.39165e-07)
(9.20147e-07 1.38382e-08 0 1.5629e-09 0 3.42572e-07)
(9.22624e-07 1.39657e-08 0 1.60038e-09 0 3.45666e-07)
(9.24718e-07 1.40761e-08 0 1.63256e-09 0 3.48539e-07)
(9.25528e-07 1.41563e-08 0 1.65868e-09 0 3.50987e-07)
(9.26103e-07 1.4164e-08 0 1.68323e-09 0 3.53321e-07)
(9.27273e-07 1.41728e-08 0 1.70664e-09 0 3.55681e-07)
(9.29108e-07 1.41946e-08 0 1.73317e-09 0 3.58033e-07)
(9.30931e-07 1.42348e-08 0 1.76234e-09 0 3.60558e-07)
(9.32949e-07 1.42193e-08 0 1.78996e-09 0 3.62343e-07)
(9.34775e-07 1.42275e-08 0 1.81301e-09 0 3.6392e-07)
(9.37211e-07 1.41945e-08 0 1.83714e-09 0 3.65567e-07)
(9.40461e-07 1.41912e-08 0 1.85737e-09 0 3.67411e-07)
(9.43597e-07 1.41865e-08 0 1.88648e-09 0 3.69157e-07)
(9.46491e-07 1.41764e-08 0 1.9135e-09 0 3.70122e-07)
(9.50233e-07 1.41325e-08 0 1.93173e-09 0 3.71008e-07)
(9.54416e-07 1.41152e-08 0 1.9468e-09 0 3.71774e-07)
(9.57599e-07 1.41239e-08 0 1.96064e-09 0 3.72093e-07)
(9.60122e-07 1.4036e-08 0 1.97198e-09 0 3.71924e-07)
(9.62027e-07 1.40199e-08 0 1.98272e-09 0 3.7208e-07)
(9.61933e-07 1.38776e-08 0 1.98305e-09 0 3.71613e-07)
(9.62088e-07 1.37327e-08 0 1.98138e-09 0 3.70722e-07)
(9.62112e-07 1.36372e-08 0 1.98681e-09 0 3.69756e-07)
(9.61605e-07 1.34846e-08 0 1.98601e-09 0 3.68451e-07)
(9.61418e-07 1.33345e-08 0 1.96866e-09 0 3.66229e-07)
(9.59979e-07 1.32518e-08 0 1.9575e-09 0 3.63755e-07)
(9.56399e-07 1.30595e-08 0 1.93939e-09 0 3.60752e-07)
(9.53055e-07 1.27909e-08 0 1.90821e-09 0 3.57142e-07)
(9.5141e-07 1.25785e-08 0 1.88568e-09 0 3.53765e-07)
(9.50662e-07 1.24206e-08 0 1.8634e-09 0 3.50773e-07)
(9.49371e-07 1.22988e-08 0 1.8462e-09 0 3.47967e-07)
(9.46194e-07 1.22034e-08 0 1.82635e-09 0 3.44571e-07)
(9.4201e-07 1.20175e-08 0 1.80599e-09 0 3.4076e-07)
(9.37956e-07 1.17724e-08 0 1.78087e-09 0 3.36497e-07)
(9.33999e-07 1.15502e-08 0 1.74343e-09 0 3.31548e-07)
(9.29425e-07 1.13288e-08 0 1.71263e-09 0 3.26476e-07)
(9.25479e-07 1.10951e-08 0 1.67751e-09 0 3.21406e-07)
(9.23208e-07 1.09144e-08 0 1.64818e-09 0 3.16538e-07)
(9.20947e-07 1.08016e-08 0 1.60904e-09 0 3.12285e-07)
(9.17243e-07 1.06309e-08 0 1.56611e-09 0 3.07937e-07)
(9.13121e-07 1.04339e-08 0 1.53144e-09 0 3.03706e-07)
(9.09092e-07 1.02409e-08 0 1.49552e-09 0 2.99891e-07)
(9.05117e-07 1.01084e-08 0 1.46611e-09 0 2.96285e-07)
(9.0094e-07 9.97365e-09 0 1.43569e-09 0 2.92324e-07)
(8.96247e-07 9.82661e-09 0 1.39913e-09 0 2.87786e-07)
(8.91858e-07 9.68442e-09 0 1.36586e-09 0 2.83703e-07)
(8.87603e-07 9.55634e-09 0 1.3353e-09 0 2.79827e-07)
(8.83495e-07 9.44513e-09 0 1.3053e-09 0 2.761e-07)
(8.79195e-07 9.2829e-09 0 1.27265e-09 0 2.72584e-07)
(8.76113e-07 9.16311e-09 0 1.241e-09 0 2.6917e-07)
(8.73521e-07 9.07793e-09 0 1.20958e-09 0 2.6595e-07)
(8.71545e-07 9.00558e-09 0 1.18409e-09 0 2.63254e-07)
(8.69512e-07 8.96551e-09 0 1.16013e-09 0 2.60619e-07)
(8.67675e-07 8.90024e-09 0 1.13849e-09 0 2.58034e-07)
(8.65695e-07 8.87875e-09 0 1.1151e-09 0 2.55728e-07)
(8.63535e-07 8.83508e-09 0 1.0904e-09 0 2.53621e-07)
(8.61386e-07 8.7883e-09 0 1.06808e-09 0 2.51788e-07)
(8.59684e-07 8.72549e-09 0 1.0458e-09 0 2.50171e-07)
(8.59138e-07 8.70555e-09 0 1.0265e-09 0 2.48819e-07)
(8.59226e-07 8.73269e-09 0 1.01191e-09 0 2.47729e-07)
(8.59346e-07 8.7473e-09 0 1.00072e-09 0 2.46855e-07)
(8.60037e-07 8.78647e-09 0 9.89752e-10 0 2.46171e-07)
(8.60866e-07 8.82914e-09 0 9.7973e-10 0 2.45826e-07)
(8.61922e-07 8.89101e-09 0 9.73384e-10 0 2.45913e-07)
(8.62908e-07 8.94573e-09 0 9.66419e-10 0 2.46258e-07)
(8.64148e-07 9.02572e-09 0 9.57895e-10 0 2.46784e-07)
(8.65293e-07 9.12107e-09 0 9.56163e-10 0 2.4746e-07)
(8.66258e-07 9.223e-09 0 9.57497e-10 0 2.4828e-07)
(8.67366e-07 9.31121e-09 0 9.58625e-10 0 2.4932e-07)
(8.68991e-07 9.41829e-09 0 9.61544e-10 0 2.50557e-07)
(8.70461e-07 9.52587e-09 0 9.67956e-10 0 2.52197e-07)
(8.72166e-07 9.64402e-09 0 9.70398e-10 0 2.54059e-07)
(8.73958e-07 9.77461e-09 0 9.76258e-10 0 2.56022e-07)
(8.75546e-07 9.90385e-09 0 9.84419e-10 0 2.58165e-07)
(8.77395e-07 1.00376e-08 0 9.96718e-10 0 2.60404e-07)
(8.79419e-07 1.01901e-08 0 1.00822e-09 0 2.62577e-07)
(8.81145e-07 1.03358e-08 0 1.01635e-09 0 2.64728e-07)
(8.82828e-07 1.04699e-08 0 1.0255e-09 0 2.66943e-07)
(8.84724e-07 1.0607e-08 0 1.03708e-09 0 2.69274e-07)
(8.87477e-07 1.07556e-08 0 1.04993e-09 0 2.72005e-07)
(8.90215e-07 1.09392e-08 0 1.06273e-09 0 2.74988e-07)
(8.92336e-07 1.11168e-08 0 1.07902e-09 0 2.77965e-07)
(8.94197e-07 1.1273e-08 0 1.09404e-09 0 2.81003e-07)
(8.95766e-07 1.14343e-08 0 1.11067e-09 0 2.84091e-07)
(8.97193e-07 1.15773e-08 0 1.12696e-09 0 2.87156e-07)
(8.98761e-07 1.17349e-08 0 1.14462e-09 0 2.90339e-07)
(9.00216e-07 1.18882e-08 0 1.16255e-09 0 2.93514e-07)
(9.02232e-07 1.20497e-08 0 1.18436e-09 0 2.96809e-07)
(9.04426e-07 1.22333e-08 0 1.20843e-09 0 3.00249e-07)
(9.06376e-07 1.23942e-08 0 1.2296e-09 0 3.03705e-07)
(9.08156e-07 1.25301e-08 0 1.25295e-09 0 3.07227e-07)
(2.77081e-06 3.86463e-08 0 3.89749e-09 0 9.46866e-07)
(2.77994e-06 3.92126e-08 0 3.98986e-09 0 9.60251e-07)
(2.78428e-06 3.96609e-08 0 4.08274e-09 0 9.72608e-07)
(2.79359e-06 4.02572e-08 0 4.19818e-09 0 9.8633e-07)
(2.79694e-06 4.07411e-08 0 4.30869e-09 0 9.96733e-07)
(2.80355e-06 4.1195e-08 0 4.41653e-09 0 1.00796e-06)
(2.80938e-06 4.1549e-08 0 4.51048e-09 0 1.0191e-06)
(2.81067e-06 4.18217e-08 0 4.5933e-09 0 1.02946e-06)
(2.81839e-06 4.21572e-08 0 4.69899e-09 0 1.04125e-06)
(2.82946e-06 4.25529e-08 0 4.80605e-09 0 1.05342e-06)
(2.84169e-06 4.30147e-08 0 4.92928e-09 0 1.06466e-06)
(2.85276e-06 4.34253e-08 0 5.03656e-09 0 1.07526e-06)
(2.85988e-06 4.37432e-08 0 5.12541e-09 0 1.08456e-06)
(2.86629e-06 4.38376e-08 0 5.20967e-09 0 1.09354e-06)
(2.86992e-06 4.3865e-08 0 5.28217e-09 0 1.10084e-06)
(2.88024e-06 4.40037e-08 0 5.37295e-09 0 1.10991e-06)
(2.89055e-06 4.41988e-08 0 5.47216e-09 0 1.11954e-06)
(2.90148e-06 4.42221e-08 0 5.56681e-09 0 1.12689e-06)
(2.91833e-06 4.47484e-08 0 5.76061e-09 0 1.1347e-06)
(2.93714e-06 4.51447e-08 0 5.96047e-09 0 1.14272e-06)
(2.94734e-06 4.51335e-08 0 6.02619e-09 0 1.14846e-06)
(2.96847e-06 4.56186e-08 0 6.24571e-09 0 1.1568e-06)
(2.98896e-06 4.60827e-08 0 6.46164e-09 0 1.16271e-06)
(3.00076e-06 4.59419e-08 0 6.52136e-09 0 1.16546e-06)
(3.02541e-06 4.63837e-08 0 6.70057e-09 0 1.17072e-06)
(3.04699e-06 4.69083e-08 0 6.87653e-09 0 1.17457e-06)
(3.05507e-06 4.66196e-08 0 6.91471e-09 0 1.174e-06)
(3.07266e-06 4.70558e-08 0 7.08119e-09 0 1.17733e-06)
(3.07254e-06 4.65963e-08 0 7.08381e-09 0 1.17582e-06)
(3.08476e-06 4.66005e-08 0 7.20689e-09 0 1.17577e-06)
(3.08495e-06 4.62791e-08 0 7.22338e-09 0 1.17266e-06)
(3.09516e-06 4.62507e-08 0 7.34972e-09 0 1.17126e-06)
(3.09468e-06 4.57474e-08 0 7.28868e-09 0 1.16418e-06)
(3.09028e-06 4.545e-08 0 7.24437e-09 0 1.15627e-06)
(3.09089e-06 4.52784e-08 0 7.30684e-09 0 1.14949e-06)
(3.08058e-06 4.43736e-08 0 7.18982e-09 0 1.13801e-06)
(3.07552e-06 4.36596e-08 0 7.10425e-09 0 1.12729e-06)
(3.08495e-06 4.35645e-08 0 7.14087e-09 0 1.12042e-06)
(3.08098e-06 4.31465e-08 0 7.07267e-09 0 1.11139e-06)
(3.07103e-06 4.28216e-08 0 6.99843e-09 0 1.10057e-06)
(3.05778e-06 4.21715e-08 0 6.91534e-09 0 1.08834e-06)
(3.04502e-06 4.13545e-08 0 6.82271e-09 0 1.07481e-06)
(3.0441e-06 4.10032e-08 0 6.79498e-09 0 1.06156e-06)
(3.0297e-06 4.02455e-08 0 6.67666e-09 0 1.04541e-06)
(3.01724e-06 3.94328e-08 0 6.53887e-09 0 1.02923e-06)
(3.01008e-06 3.8793e-08 0 6.41816e-09 0 1.01371e-06)
(3.00304e-06 3.84025e-08 0 6.27385e-09 0 1.0002e-06)
(2.99146e-06 3.78146e-08 0 6.107e-09 0 9.86268e-07)
(2.97852e-06 3.71474e-08 0 5.97548e-09 0 9.72826e-07)
(2.9658e-06 3.64923e-08 0 5.83904e-09 0 9.60712e-07)
(2.95315e-06 3.60236e-08 0 5.72206e-09 0 9.49201e-07)
(2.93991e-06 3.55646e-08 0 5.60852e-09 0 9.3664e-07)
(2.92493e-06 3.50495e-08 0 5.46845e-09 0 9.22196e-07)
(2.91094e-06 3.45592e-08 0 5.34102e-09 0 9.0922e-07)
(2.89737e-06 3.41069e-08 0 5.22141e-09 0 8.96876e-07)
(2.88435e-06 3.37208e-08 0 5.10273e-09 0 8.85028e-07)
(2.85942e-06 3.28171e-08 0 4.89419e-09 0 8.71698e-07)
(2.84963e-06 3.24082e-08 0 4.77371e-09 0 8.60862e-07)
(2.84143e-06 3.21183e-08 0 4.65827e-09 0 8.5069e-07)
(2.83517e-06 3.18754e-08 0 4.56225e-09 0 8.42151e-07)
(2.82872e-06 3.1738e-08 0 4.47206e-09 0 8.33805e-07)
(2.82285e-06 3.15214e-08 0 4.38767e-09 0 8.25629e-07)
(2.80522e-06 3.10973e-08 0 4.22349e-09 0 8.16245e-07)
(2.79837e-06 3.09515e-08 0 4.13443e-09 0 8.09635e-07)
(2.79162e-06 3.08019e-08 0 4.05394e-09 0 8.03898e-07)
(2.775e-06 3.02546e-08 0 3.89908e-09 0 7.96758e-07)
(2.77327e-06 3.01928e-08 0 3.82968e-09 0 7.92532e-07)
(2.77355e-06 3.02861e-08 0 3.77701e-09 0 7.89138e-07)
(2.76267e-06 2.99928e-08 0 3.66632e-09 0 7.84359e-07)
(2.76482e-06 3.01243e-08 0 3.62761e-09 0 7.82256e-07)
(2.75615e-06 2.99155e-08 0 3.52428e-09 0 7.79137e-07)
(2.75945e-06 3.0122e-08 0 3.50171e-09 0 7.7946e-07)
(2.75126e-06 2.9953e-08 0 3.41039e-09 0 7.78488e-07)
(2.7551e-06 3.02156e-08 0 3.38181e-09 0 7.80177e-07)
(2.74737e-06 3.01702e-08 0 3.30857e-09 0 7.80228e-07)
(2.73909e-06 3.01387e-08 0 3.24585e-09 0 7.80705e-07)
(2.74252e-06 3.04252e-08 0 3.25e-09 0 7.83987e-07)
(2.7363e-06 3.04004e-08 0 3.19262e-09 0 7.85722e-07)
(2.72962e-06 3.03717e-08 0 3.14592e-09 0 7.88689e-07)
(2.73491e-06 3.07482e-08 0 3.15435e-09 0 7.94524e-07)
(2.72924e-06 3.07804e-08 0 3.10484e-09 0 7.98443e-07)
(2.72295e-06 3.08007e-08 0 3.06152e-09 0 8.02888e-07)
(2.7243e-06 3.11663e-08 0 3.09476e-09 0 8.08546e-07)
(2.72619e-06 3.15886e-08 0 3.12544e-09 0 8.13983e-07)
(2.72714e-06 3.19888e-08 0 3.14557e-09 0 8.19325e-07)
(2.73235e-06 3.24037e-08 0 3.1739e-09 0 8.26181e-07)
(2.73379e-06 3.2775e-08 0 3.20452e-09 0 8.32045e-07)
(2.73786e-06 3.31803e-08 0 3.23899e-09 0 8.39126e-07)
(2.74185e-06 3.3692e-08 0 3.27316e-09 0 8.46951e-07)
(2.74393e-06 3.41835e-08 0 3.31794e-09 0 8.54731e-07)
(2.74518e-06 3.46074e-08 0 3.35866e-09 0 8.6267e-07)
(2.74552e-06 3.50455e-08 0 3.40413e-09 0 8.7073e-07)
(2.74541e-06 3.54263e-08 0 3.44847e-09 0 8.78689e-07)
(2.74571e-06 3.58497e-08 0 3.49678e-09 0 8.8698e-07)
(2.75016e-06 3.63183e-08 0 3.55155e-09 0 8.9668e-07)
(2.7518e-06 3.67515e-08 0 3.61229e-09 0 9.05264e-07)
(2.75398e-06 3.72503e-08 0 3.67966e-09 0 9.14256e-07)
(2.75991e-06 3.77404e-08 0 3.74413e-09 0 9.2478e-07)
(2.76533e-06 3.81542e-08 0 3.81523e-09 0 9.35507e-07)
(7.41644e-06 2.31635e-07 0 4.12176e-08 0 2.06946e-06)
(7.44064e-06 2.3462e-07 0 4.2206e-08 0 2.09614e-06)
(7.45383e-06 2.37232e-07 0 4.31604e-08 0 2.12108e-06)
(7.4882e-06 2.40996e-07 0 4.44101e-08 0 2.15029e-06)
(7.51002e-06 2.4392e-07 0 4.55574e-08 0 2.17346e-06)
(7.53063e-06 2.46702e-07 0 4.67559e-08 0 2.19587e-06)
(7.56237e-06 2.49519e-07 0 4.79538e-08 0 2.22103e-06)
(7.59613e-06 2.523e-07 0 4.9099e-08 0 2.24655e-06)
(7.63286e-06 2.55121e-07 0 5.03632e-08 0 2.27223e-06)
(7.68516e-06 2.58656e-07 0 5.18057e-08 0 2.30072e-06)
(7.72833e-06 2.61573e-07 0 5.31607e-08 0 2.32467e-06)
(7.77259e-06 2.64417e-07 0 5.4461e-08 0 2.34708e-06)
(7.82551e-06 2.67663e-07 0 5.5703e-08 0 2.37059e-06)
(7.86466e-06 2.69484e-07 0 5.68035e-08 0 2.39042e-06)
(7.90671e-06 2.71086e-07 0 5.79512e-08 0 2.41076e-06)
(7.96426e-06 2.73079e-07 0 5.91429e-08 0 2.43383e-06)
(8.01539e-06 2.75029e-07 0 6.03418e-08 0 2.45391e-06)
(8.06907e-06 2.76545e-07 0 6.14909e-08 0 2.47014e-06)
(8.12344e-06 2.78142e-07 0 6.26266e-08 0 2.48558e-06)
(8.17993e-06 2.7916e-07 0 6.37336e-08 0 2.50109e-06)
(8.2437e-06 2.80351e-07 0 6.47903e-08 0 2.51694e-06)
(8.29798e-06 2.81382e-07 0 6.5822e-08 0 2.52857e-06)
(8.36272e-06 2.82468e-07 0 6.69204e-08 0 2.54033e-06)
(8.43128e-06 2.83202e-07 0 6.78082e-08 0 2.5514e-06)
(8.49115e-06 2.83995e-07 0 6.84573e-08 0 2.557e-06)
(8.54506e-06 2.85026e-07 0 6.90795e-08 0 2.56028e-06)
(8.60332e-06 2.85175e-07 0 6.9696e-08 0 2.56549e-06)
(8.64552e-06 2.85348e-07 0 7.02217e-08 0 2.56822e-06)
(8.68093e-06 2.84556e-07 0 7.05712e-08 0 2.56777e-06)
(8.70184e-06 2.827e-07 0 7.05522e-08 0 2.56015e-06)
(8.73409e-06 2.81545e-07 0 7.0804e-08 0 2.5547e-06)
(8.76492e-06 2.80154e-07 0 7.09655e-08 0 2.54754e-06)
(8.78201e-06 2.77984e-07 0 7.06039e-08 0 2.53304e-06)
(8.8049e-06 2.76607e-07 0 7.03403e-08 0 2.51977e-06)
(8.8108e-06 2.74117e-07 0 6.98861e-08 0 2.50169e-06)
(8.81628e-06 2.70407e-07 0 6.89519e-08 0 2.48134e-06)
(8.8257e-06 2.67422e-07 0 6.82035e-08 0 2.46214e-06)
(8.83942e-06 2.64815e-07 0 6.74537e-08 0 2.44339e-06)
(8.84925e-06 2.63227e-07 0 6.69107e-08 0 2.42451e-06)
(8.8471e-06 2.61748e-07 0 6.62694e-08 0 2.40273e-06)
(8.83657e-06 2.5885e-07 0 6.55734e-08 0 2.379e-06)
(8.82671e-06 2.55435e-07 0 6.47875e-08 0 2.35266e-06)
(8.80438e-06 2.51064e-07 0 6.3543e-08 0 2.32006e-06)
(8.79427e-06 2.47752e-07 0 6.25693e-08 0 2.29025e-06)
(8.77438e-06 2.43501e-07 0 6.1284e-08 0 2.25765e-06)
(8.7749e-06 2.40254e-07 0 6.01594e-08 0 2.23028e-06)
(8.7673e-06 2.3786e-07 0 5.88781e-08 0 2.20222e-06)
(8.75369e-06 2.35331e-07 0 5.755e-08 0 2.17404e-06)
(8.73547e-06 2.32211e-07 0 5.63473e-08 0 2.14778e-06)
(8.71473e-06 2.29176e-07 0 5.51392e-08 0 2.12478e-06)
(8.69087e-06 2.26495e-07 0 5.40277e-08 0 2.10179e-06)
(8.66463e-06 2.24011e-07 0 5.29538e-08 0 2.07693e-06)
(8.6349e-06 2.21284e-07 0 5.18081e-08 0 2.05005e-06)
(8.59436e-06 2.1829e-07 0 5.05306e-08 0 2.02232e-06)
(8.56826e-06 2.15786e-07 0 4.94801e-08 0 1.99902e-06)
(8.54531e-06 2.13794e-07 0 4.83424e-08 0 1.97695e-06)
(8.5125e-06 2.11158e-07 0 4.71952e-08 0 1.95425e-06)
(8.49394e-06 2.09176e-07 0 4.61314e-08 0 1.93411e-06)
(8.46773e-06 2.07334e-07 0 4.50804e-08 0 1.91405e-06)
(8.44472e-06 2.05923e-07 0 4.41284e-08 0 1.89631e-06)
(8.42118e-06 2.04818e-07 0 4.32067e-08 0 1.87861e-06)
(8.39723e-06 2.03695e-07 0 4.2345e-08 0 1.86278e-06)
(8.3716e-06 2.0289e-07 0 4.14898e-08 0 1.84832e-06)
(8.34698e-06 2.0189e-07 0 4.07033e-08 0 1.8366e-06)
(8.32544e-06 2.0118e-07 0 3.99716e-08 0 1.8268e-06)
(8.30616e-06 2.00371e-07 0 3.91751e-08 0 1.81823e-06)
(8.28015e-06 1.99644e-07 0 3.84376e-08 0 1.80879e-06)
(8.2692e-06 1.99922e-07 0 3.78986e-08 0 1.80311e-06)
(8.2477e-06 1.99761e-07 0 3.73926e-08 0 1.79728e-06)
(8.22741e-06 1.99765e-07 0 3.69446e-08 0 1.79249e-06)
(8.20859e-06 1.99792e-07 0 3.65267e-08 0 1.7898e-06)
(8.19069e-06 2.00232e-07 0 3.61781e-08 0 1.78946e-06)
(8.17192e-06 2.00857e-07 0 3.58627e-08 0 1.7906e-06)
(8.15224e-06 2.01565e-07 0 3.55306e-08 0 1.79275e-06)
(8.13113e-06 2.02615e-07 0 3.53248e-08 0 1.79617e-06)
(8.09808e-06 2.03218e-07 0 3.51365e-08 0 1.79831e-06)
(8.07693e-06 2.04319e-07 0 3.50883e-08 0 1.80374e-06)
(8.0452e-06 2.05016e-07 0 3.50095e-08 0 1.80769e-06)
(8.01485e-06 2.05911e-07 0 3.50183e-08 0 1.81411e-06)
(7.99557e-06 2.07336e-07 0 3.50508e-08 0 1.82428e-06)
(7.96474e-06 2.0858e-07 0 3.51036e-08 0 1.83327e-06)
(7.93267e-06 2.09742e-07 0 3.52235e-08 0 1.84308e-06)
(7.88906e-06 2.10516e-07 0 3.53233e-08 0 1.85062e-06)
(7.85668e-06 2.11714e-07 0 3.54734e-08 0 1.85979e-06)
(7.82346e-06 2.12929e-07 0 3.55898e-08 0 1.86914e-06)
(7.79015e-06 2.13971e-07 0 3.57545e-08 0 1.87864e-06)
(7.74758e-06 2.14386e-07 0 3.58351e-08 0 1.88645e-06)
(7.71957e-06 2.15434e-07 0 3.60389e-08 0 1.89821e-06)
(7.67986e-06 2.16576e-07 0 3.62317e-08 0 1.90883e-06)
(7.64962e-06 2.18005e-07 0 3.65261e-08 0 1.92157e-06)
(7.60611e-06 2.18833e-07 0 3.67491e-08 0 1.93191e-06)
(7.57256e-06 2.19865e-07 0 3.7057e-08 0 1.94356e-06)
(7.53812e-06 2.20877e-07 0 3.73873e-08 0 1.95564e-06)
(7.5039e-06 2.21949e-07 0 3.77492e-08 0 1.96806e-06)
(7.47015e-06 2.22763e-07 0 3.80927e-08 0 1.97984e-06)
(7.43865e-06 2.23745e-07 0 3.85235e-08 0 1.99278e-06)
(7.4204e-06 2.2539e-07 0 3.90862e-08 0 2.00852e-06)
(7.41201e-06 2.27259e-07 0 3.96779e-08 0 2.02625e-06)
(7.40297e-06 2.28891e-07 0 4.03205e-08 0 2.04505e-06)
(1.22187e-05 5.08357e-07 0 1.08973e-07 0 3.22825e-06)
(1.22431e-05 5.14581e-07 0 1.11814e-07 0 3.26554e-06)
(1.22799e-05 5.21682e-07 0 1.14819e-07 0 3.30497e-06)
(1.23274e-05 5.29613e-07 0 1.18102e-07 0 3.34458e-06)
(1.23739e-05 5.3714e-07 0 1.21595e-07 0 3.38111e-06)
(1.24209e-05 5.44094e-07 0 1.25001e-07 0 3.41589e-06)
(1.24804e-05 5.51254e-07 0 1.28586e-07 0 3.4534e-06)
(1.25446e-05 5.58552e-07 0 1.32256e-07 0 3.49082e-06)
(1.26232e-05 5.66603e-07 0 1.36154e-07 0 3.53007e-06)
(1.27078e-05 5.74864e-07 0 1.40373e-07 0 3.56893e-06)
(1.27968e-05 5.82828e-07 0 1.4456e-07 0 3.60586e-06)
(1.28896e-05 5.90577e-07 0 1.48548e-07 0 3.6402e-06)
(1.29857e-05 5.98618e-07 0 1.524e-07 0 3.67278e-06)
(1.30807e-05 6.05466e-07 0 1.5621e-07 0 3.70357e-06)
(1.31774e-05 6.11306e-07 0 1.59854e-07 0 3.73443e-06)
(1.32836e-05 6.16944e-07 0 1.635e-07 0 3.76591e-06)
(1.33993e-05 6.23237e-07 0 1.67314e-07 0 3.7964e-06)
(1.35207e-05 6.2932e-07 0 1.71036e-07 0 3.82203e-06)
(1.36361e-05 6.34348e-07 0 1.74556e-07 0 3.84359e-06)
(1.3754e-05 6.3854e-07 0 1.77962e-07 0 3.86502e-06)
(1.38799e-05 6.42629e-07 0 1.81237e-07 0 3.886e-06)
(1.40156e-05 6.47414e-07 0 1.84648e-07 0 3.9041e-06)
(1.41529e-05 6.51706e-07 0 1.8785e-07 0 3.9206e-06)
(1.42819e-05 6.54969e-07 0 1.90452e-07 0 3.93319e-06)
(1.44222e-05 6.59655e-07 0 1.92955e-07 0 3.94421e-06)
(1.45495e-05 6.63643e-07 0 1.95019e-07 0 3.94906e-06)
(1.46552e-05 6.65209e-07 0 1.96503e-07 0 3.95058e-06)
(1.47677e-05 6.67295e-07 0 1.98329e-07 0 3.95334e-06)
(1.48613e-05 6.67717e-07 0 1.99541e-07 0 3.9504e-06)
(1.49522e-05 6.66818e-07 0 2.00073e-07 0 3.94152e-06)
(1.50423e-05 6.65849e-07 0 2.00709e-07 0 3.92978e-06)
(1.5118e-05 6.64154e-07 0 2.0092e-07 0 3.91332e-06)
(1.52015e-05 6.62443e-07 0 2.00706e-07 0 3.89553e-06)
(1.52718e-05 6.5957e-07 0 1.99857e-07 0 3.87306e-06)
(1.53254e-05 6.55497e-07 0 1.98635e-07 0 3.8472e-06)
(1.53881e-05 6.50943e-07 0 1.96786e-07 0 3.82176e-06)
(1.54369e-05 6.45638e-07 0 1.94644e-07 0 3.79337e-06)
(1.54993e-05 6.41998e-07 0 1.93087e-07 0 3.76828e-06)
(1.55467e-05 6.39582e-07 0 1.91582e-07 0 3.73886e-06)
(1.55818e-05 6.37162e-07 0 1.89727e-07 0 3.70492e-06)
(1.55933e-05 6.31693e-07 0 1.87438e-07 0 3.66788e-06)
(1.56144e-05 6.25759e-07 0 1.85196e-07 0 3.62967e-06)
(1.56213e-05 6.18068e-07 0 1.82194e-07 0 3.58483e-06)
(1.56286e-05 6.11086e-07 0 1.7927e-07 0 3.54089e-06)
(1.56372e-05 6.03964e-07 0 1.76198e-07 0 3.50071e-06)
(1.56513e-05 5.96865e-07 0 1.729e-07 0 3.46309e-06)
(1.5657e-05 5.90838e-07 0 1.69144e-07 0 3.42284e-06)
(1.56692e-05 5.86615e-07 0 1.661e-07 0 3.38671e-06)
(1.56624e-05 5.80529e-07 0 1.62844e-07 0 3.35115e-06)
(1.56517e-05 5.75141e-07 0 1.59523e-07 0 3.31934e-06)
(1.5634e-05 5.70147e-07 0 1.56419e-07 0 3.28781e-06)
(1.56107e-05 5.65192e-07 0 1.53276e-07 0 3.25311e-06)
(1.55675e-05 5.59074e-07 0 1.49992e-07 0 3.21516e-06)
(1.55338e-05 5.53445e-07 0 1.46744e-07 0 3.18099e-06)
(1.54898e-05 5.4762e-07 0 1.4363e-07 0 3.14799e-06)
(1.54504e-05 5.42861e-07 0 1.40476e-07 0 3.11834e-06)
(1.54123e-05 5.38342e-07 0 1.37382e-07 0 3.0891e-06)
(1.53732e-05 5.33976e-07 0 1.34534e-07 0 3.06158e-06)
(1.53234e-05 5.29456e-07 0 1.31622e-07 0 3.03501e-06)
(1.52756e-05 5.25943e-07 0 1.28836e-07 0 3.0116e-06)
(1.5239e-05 5.23708e-07 0 1.26446e-07 0 2.99143e-06)
(1.5175e-05 5.20363e-07 0 1.23825e-07 0 2.96972e-06)
(1.51213e-05 5.17831e-07 0 1.21544e-07 0 2.95269e-06)
(1.50671e-05 5.1538e-07 0 1.19364e-07 0 2.93964e-06)
(1.50037e-05 5.12857e-07 0 1.17152e-07 0 2.92772e-06)
(1.49436e-05 5.10549e-07 0 1.14976e-07 0 2.91737e-06)
(1.48865e-05 5.08932e-07 0 1.12999e-07 0 2.90826e-06)
(1.48332e-05 5.08066e-07 0 1.11379e-07 0 2.90164e-06)
(1.47691e-05 5.06934e-07 0 1.09907e-07 0 2.8955e-06)
(1.47159e-05 5.06538e-07 0 1.08754e-07 0 2.89301e-06)
(1.46525e-05 5.05421e-07 0 1.07473e-07 0 2.89106e-06)
(1.45751e-05 5.04503e-07 0 1.06197e-07 0 2.89052e-06)
(1.45102e-05 5.04709e-07 0 1.05236e-07 0 2.89346e-06)
(1.44295e-05 5.04522e-07 0 1.04145e-07 0 2.89596e-06)
(1.43484e-05 5.0466e-07 0 1.03309e-07 0 2.89937e-06)
(1.4265e-05 5.04686e-07 0 1.02654e-07 0 2.90462e-06)
(1.41682e-05 5.04415e-07 0 1.02021e-07 0 2.90894e-06)
(1.40814e-05 5.0467e-07 0 1.01726e-07 0 2.91742e-06)
(1.39878e-05 5.04323e-07 0 1.01406e-07 0 2.92592e-06)
(1.38926e-05 5.04591e-07 0 1.01099e-07 0 2.93671e-06)
(1.37881e-05 5.04256e-07 0 1.00774e-07 0 2.94627e-06)
(1.36914e-05 5.0478e-07 0 1.00823e-07 0 2.96015e-06)
(1.35858e-05 5.04354e-07 0 1.00703e-07 0 2.97092e-06)
(1.34788e-05 5.03953e-07 0 1.00619e-07 0 2.98161e-06)
(1.33719e-05 5.0354e-07 0 1.00478e-07 0 2.992e-06)
(1.32676e-05 5.02714e-07 0 1.00417e-07 0 3.00188e-06)
(1.31647e-05 5.01647e-07 0 1.00378e-07 0 3.014e-06)
(1.30689e-05 5.0092e-07 0 1.00352e-07 0 3.02667e-06)
(1.29725e-05 5.00791e-07 0 1.00515e-07 0 3.04e-06)
(1.28665e-05 4.99853e-07 0 1.00531e-07 0 3.0505e-06)
(1.277e-05 4.99502e-07 0 1.00746e-07 0 3.06327e-06)
(1.26718e-05 4.99023e-07 0 1.01079e-07 0 3.07557e-06)
(1.2575e-05 4.98206e-07 0 1.01345e-07 0 3.0869e-06)
(1.24802e-05 4.97265e-07 0 1.01617e-07 0 3.09777e-06)
(1.23974e-05 4.96924e-07 0 1.02165e-07 0 3.11137e-06)
(1.23198e-05 4.96422e-07 0 1.02679e-07 0 3.12511e-06)
(1.22673e-05 4.97749e-07 0 1.03683e-07 0 3.14421e-06)
(1.22243e-05 4.99903e-07 0 1.04993e-07 0 3.16631e-06)
(1.22156e-05 5.03631e-07 0 1.06792e-07 0 3.19596e-06)
(1.67526e-05 8.61607e-07 0 2.14242e-07 0 4.38204e-06)
(1.67652e-05 8.71008e-07 0 2.1993e-07 0 4.42639e-06)
(1.67944e-05 8.82187e-07 0 2.26065e-07 0 4.47379e-06)
(1.68329e-05 8.94282e-07 0 2.32761e-07 0 4.52079e-06)
(1.68735e-05 9.05647e-07 0 2.39606e-07 0 4.56472e-06)
(1.69176e-05 9.16349e-07 0 2.46642e-07 0 4.60733e-06)
(1.6981e-05 9.28011e-07 0 2.54463e-07 0 4.65378e-06)
(1.70516e-05 9.39741e-07 0 2.62064e-07 0 4.69861e-06)
(1.71425e-05 9.53324e-07 0 2.70668e-07 0 4.7465e-06)
(1.7233e-05 9.65839e-07 0 2.7897e-07 0 4.79121e-06)
(1.73422e-05 9.79005e-07 0 2.88007e-07 0 4.83537e-06)
(1.74583e-05 9.91885e-07 0 2.96606e-07 0 4.8768e-06)
(1.75816e-05 1.00523e-06 0 3.04816e-07 0 4.91605e-06)
(1.77086e-05 1.01761e-06 0 3.12965e-07 0 4.95274e-06)
(1.78428e-05 1.02843e-06 0 3.2107e-07 0 4.98889e-06)
(1.79876e-05 1.03885e-06 0 3.28991e-07 0 5.02613e-06)
(1.81366e-05 1.04905e-06 0 3.36544e-07 0 5.05978e-06)
(1.82999e-05 1.05953e-06 0 3.44236e-07 0 5.08864e-06)
(1.84704e-05 1.06949e-06 0 3.51902e-07 0 5.11542e-06)
(1.86518e-05 1.07886e-06 0 3.59593e-07 0 5.14092e-06)
(1.88354e-05 1.08676e-06 0 3.66534e-07 0 5.16276e-06)
(1.90243e-05 1.09528e-06 0 3.73237e-07 0 5.18151e-06)
(1.92135e-05 1.10298e-06 0 3.79298e-07 0 5.19645e-06)
(1.94085e-05 1.11109e-06 0 3.85002e-07 0 5.20976e-06)
(1.96013e-05 1.11926e-06 0 3.89923e-07 0 5.21914e-06)
(1.97962e-05 1.12729e-06 0 3.94324e-07 0 5.22398e-06)
(1.99778e-05 1.13336e-06 0 3.97939e-07 0 5.22414e-06)
(2.01425e-05 1.13753e-06 0 4.01092e-07 0 5.2208e-06)
(2.03089e-05 1.14081e-06 0 4.03755e-07 0 5.21307e-06)
(2.04664e-05 1.14223e-06 0 4.05273e-07 0 5.20076e-06)
(2.06286e-05 1.1434e-06 0 4.06528e-07 0 5.18338e-06)
(2.07756e-05 1.14358e-06 0 4.06966e-07 0 5.16091e-06)
(2.09133e-05 1.14151e-06 0 4.06082e-07 0 5.13254e-06)
(2.10464e-05 1.13829e-06 0 4.04534e-07 0 5.10361e-06)
(2.11799e-05 1.13527e-06 0 4.02598e-07 0 5.07499e-06)
(2.13018e-05 1.1313e-06 0 3.9984e-07 0 5.04504e-06)
(2.14089e-05 1.12562e-06 0 3.96156e-07 0 5.01124e-06)
(2.15196e-05 1.12056e-06 0 3.92687e-07 0 4.97662e-06)
(2.16158e-05 1.11735e-06 0 3.89483e-07 0 4.93832e-06)
(2.17039e-05 1.11424e-06 0 3.8561e-07 0 4.89542e-06)
(2.1779e-05 1.10876e-06 0 3.81246e-07 0 4.85201e-06)
(2.18408e-05 1.10018e-06 0 3.76222e-07 0 4.80352e-06)
(2.19042e-05 1.09152e-06 0 3.71199e-07 0 4.75294e-06)
(2.19446e-05 1.08119e-06 0 3.65325e-07 0 4.70085e-06)
(2.19953e-05 1.07162e-06 0 3.59326e-07 0 4.6559e-06)
(2.20335e-05 1.06107e-06 0 3.5275e-07 0 4.61163e-06)
(2.20696e-05 1.05244e-06 0 3.46096e-07 0 4.56824e-06)
(2.21014e-05 1.04519e-06 0 3.40019e-07 0 4.52548e-06)
(2.21171e-05 1.03659e-06 0 3.33575e-07 0 4.48444e-06)
(2.21333e-05 1.02995e-06 0 3.2766e-07 0 4.44978e-06)
(2.21223e-05 1.02236e-06 0 3.21005e-07 0 4.41112e-06)
(2.21111e-05 1.01552e-06 0 3.15028e-07 0 4.37197e-06)
(2.20806e-05 1.00723e-06 0 3.08727e-07 0 4.33067e-06)
(2.20393e-05 9.97788e-07 0 3.02172e-07 0 4.29155e-06)
(2.19951e-05 9.88809e-07 0 2.96053e-07 0 4.25615e-06)
(2.19405e-05 9.80789e-07 0 2.89618e-07 0 4.22286e-06)
(2.18818e-05 9.73583e-07 0 2.83624e-07 0 4.19028e-06)
(2.18195e-05 9.66518e-07 0 2.78072e-07 0 4.16016e-06)
(2.17552e-05 9.59818e-07 0 2.72815e-07 0 4.13369e-06)
(2.16808e-05 9.53802e-07 0 2.6759e-07 0 4.10987e-06)
(2.16014e-05 9.48541e-07 0 2.62659e-07 0 4.08875e-06)
(2.15083e-05 9.42771e-07 0 2.5765e-07 0 4.06835e-06)
(2.14077e-05 9.37295e-07 0 2.52851e-07 0 4.05145e-06)
(2.13066e-05 9.32398e-07 0 2.48556e-07 0 4.03887e-06)
(2.1205e-05 9.28084e-07 0 2.44485e-07 0 4.03039e-06)
(2.10944e-05 9.23696e-07 0 2.40268e-07 0 4.02248e-06)
(2.09906e-05 9.20185e-07 0 2.36549e-07 0 4.01547e-06)
(2.08767e-05 9.16581e-07 0 2.33093e-07 0 4.00949e-06)
(2.07638e-05 9.13889e-07 0 2.30251e-07 0 4.00594e-06)
(2.0649e-05 9.11465e-07 0 2.27706e-07 0 4.00437e-06)
(2.05226e-05 9.08099e-07 0 2.24932e-07 0 4.00432e-06)
(2.03971e-05 9.05827e-07 0 2.22504e-07 0 4.00768e-06)
(2.02648e-05 9.03698e-07 0 2.20196e-07 0 4.01036e-06)
(2.01298e-05 9.01993e-07 0 2.18051e-07 0 4.01436e-06)
(1.99789e-05 8.99881e-07 0 2.16106e-07 0 4.0187e-06)
(1.98376e-05 8.98427e-07 0 2.14643e-07 0 4.02678e-06)
(1.96769e-05 8.959e-07 0 2.13043e-07 0 4.03255e-06)
(1.95265e-05 8.93701e-07 0 2.12036e-07 0 4.04243e-06)
(1.93659e-05 8.91072e-07 0 2.11041e-07 0 4.054e-06)
(1.92057e-05 8.88588e-07 0 2.09781e-07 0 4.0646e-06)
(1.905e-05 8.87073e-07 0 2.09156e-07 0 4.07943e-06)
(1.88934e-05 8.84899e-07 0 2.08405e-07 0 4.09297e-06)
(1.87323e-05 8.82727e-07 0 2.0784e-07 0 4.10751e-06)
(1.85682e-05 8.79752e-07 0 2.07019e-07 0 4.11934e-06)
(1.84147e-05 8.77469e-07 0 2.06388e-07 0 4.13264e-06)
(1.82549e-05 8.7392e-07 0 2.0574e-07 0 4.1441e-06)
(1.81047e-05 8.69998e-07 0 2.04896e-07 0 4.1566e-06)
(1.79573e-05 8.66752e-07 0 2.04234e-07 0 4.1701e-06)
(1.78174e-05 8.64144e-07 0 2.03723e-07 0 4.18261e-06)
(1.76718e-05 8.60923e-07 0 2.03143e-07 0 4.19277e-06)
(1.75386e-05 8.58401e-07 0 2.02684e-07 0 4.20405e-06)
(1.74027e-05 8.55758e-07 0 2.02509e-07 0 4.21488e-06)
(1.72725e-05 8.52686e-07 0 2.02097e-07 0 4.2243e-06)
(1.71495e-05 8.50221e-07 0 2.02156e-07 0 4.23522e-06)
(1.70397e-05 8.48314e-07 0 2.02465e-07 0 4.24806e-06)
(1.694e-05 8.47044e-07 0 2.03168e-07 0 4.26372e-06)
(1.68532e-05 8.46906e-07 0 2.04285e-07 0 4.28189e-06)
(1.6797e-05 8.49845e-07 0 2.06568e-07 0 4.30874e-06)
(1.67627e-05 8.5458e-07 0 2.09919e-07 0 4.34262e-06)
(1.97933e-05 1.23261e-06 0 3.67844e-07 0 5.43303e-06)
(1.98119e-05 1.24491e-06 0 3.76578e-07 0 5.48208e-06)
(1.98568e-05 1.25979e-06 0 3.86094e-07 0 5.5353e-06)
(1.99215e-05 1.27632e-06 0 3.9629e-07 0 5.59079e-06)
(1.99858e-05 1.2914e-06 0 4.06585e-07 0 5.64172e-06)
(2.00642e-05 1.30701e-06 0 4.1802e-07 0 5.6952e-06)
(2.01161e-05 1.32099e-06 0 4.30824e-07 0 5.74439e-06)
(2.01849e-05 1.33654e-06 0 4.44246e-07 0 5.79447e-06)
(2.0265e-05 1.35237e-06 0 4.57941e-07 0 5.84265e-06)
(2.03601e-05 1.36853e-06 0 4.72302e-07 0 5.89045e-06)
(2.04689e-05 1.38454e-06 0 4.86728e-07 0 5.9349e-06)
(2.05909e-05 1.40102e-06 0 5.01095e-07 0 5.97844e-06)
(2.07276e-05 1.41812e-06 0 5.15149e-07 0 6.01922e-06)
(2.08738e-05 1.43475e-06 0 5.28953e-07 0 6.05741e-06)
(2.10226e-05 1.44888e-06 0 5.41937e-07 0 6.09311e-06)
(2.11847e-05 1.46239e-06 0 5.54755e-07 0 6.12944e-06)
(2.13644e-05 1.47675e-06 0 5.67551e-07 0 6.16366e-06)
(2.15585e-05 1.4908e-06 0 5.80181e-07 0 6.19288e-06)
(2.17673e-05 1.50535e-06 0 5.93149e-07 0 6.22103e-06)
(2.19798e-05 1.51823e-06 0 6.05015e-07 0 6.24403e-06)
(2.22008e-05 1.53e-06 0 6.16095e-07 0 6.26484e-06)
(2.24361e-05 1.54229e-06 0 6.26817e-07 0 6.28159e-06)
(2.2672e-05 1.55423e-06 0 6.36706e-07 0 6.29431e-06)
(2.29145e-05 1.5673e-06 0 6.45997e-07 0 6.30563e-06)
(2.31524e-05 1.57918e-06 0 6.53678e-07 0 6.31248e-06)
(2.33914e-05 1.59058e-06 0 6.60289e-07 0 6.3151e-06)
(2.36241e-05 1.60011e-06 0 6.65535e-07 0 6.31013e-06)
(2.38587e-05 1.60909e-06 0 6.71058e-07 0 6.3039e-06)
(2.40789e-05 1.61553e-06 0 6.74895e-07 0 6.29066e-06)
(2.42958e-05 1.61979e-06 0 6.77215e-07 0 6.27346e-06)
(2.45156e-05 1.62387e-06 0 6.78753e-07 0 6.25156e-06)
(2.47205e-05 1.62627e-06 0 6.78903e-07 0 6.22411e-06)
(2.49184e-05 1.62609e-06 0 6.77463e-07 0 6.19146e-06)
(2.51126e-05 1.62401e-06 0 6.74841e-07 0 6.15849e-06)
(2.52941e-05 1.62205e-06 0 6.71547e-07 0 6.12601e-06)
(2.54688e-05 1.6192e-06 0 6.67425e-07 0 6.09138e-06)
(2.56299e-05 1.6143e-06 0 6.61651e-07 0 6.0533e-06)
(2.57884e-05 1.60953e-06 0 6.56269e-07 0 6.01576e-06)
(2.59349e-05 1.60598e-06 0 6.51025e-07 0 5.9751e-06)
(2.60774e-05 1.603e-06 0 6.44865e-07 0 5.93087e-06)
(2.62055e-05 1.59718e-06 0 6.36967e-07 0 5.88339e-06)
(2.63187e-05 1.58825e-06 0 6.28711e-07 0 5.83169e-06)
(2.64262e-05 1.57888e-06 0 6.20502e-07 0 5.77816e-06)
(2.65113e-05 1.5672e-06 0 6.10816e-07 0 5.72407e-06)
(2.65896e-05 1.55637e-06 0 6.01609e-07 0 5.677e-06)
(2.66541e-05 1.54439e-06 0 5.9156e-07 0 5.63108e-06)
(2.67054e-05 1.53259e-06 0 5.80766e-07 0 5.58599e-06)
(2.67492e-05 1.52243e-06 0 5.71177e-07 0 5.54155e-06)
(2.67859e-05 1.51303e-06 0 5.6143e-07 0 5.50083e-06)