/*--------------------------------*- C++ -*----------------------------------*\
| =========                 |                                                 |
| \\      /  F ield         | OpenFOAM: The Open Source CFD Toolbox           |
|  \\    /   O peration     | Version:  2306                                  |
|   \\  /    A nd           | Website:  www.openfoam.com                      |
|    \\/     M anipulation  |                                                 |
\*---------------------------------------------------------------------------*/
// * * * * * * * * * * * * * * * * * * * * * * * * * * * * * * * * * * * * * //
FoamFile
{
    version         2;
    format          ascii;
    class           volSymmTensorField;
    location        "2.47";
    object          R;
}

dimensions      [ 0 2 -2 0 0 0 0 ];

internalField   nonuniform List<symmTensor> 
14751
(
(2.87656e-05 2.62131e-05 3.10784e-28 2.87909e-05 4.74093e-30 2.87777e-05)
(2.85028e-05 2.60242e-05 -3.13342e-28 2.85302e-05 -8.71591e-28 2.85157e-05)
(2.82513e-05 2.58456e-05 -6.16738e-28 2.82775e-05 2.61e-29 2.8264e-05)
(2.80182e-05 2.57022e-05 -8.72402e-28 2.80521e-05 7.6771e-30 2.80335e-05)
(2.77457e-05 2.553e-05 6.37534e-30 2.77823e-05 -6.5028e-27 2.77626e-05)
(2.74879e-05 2.5373e-05 3.67302e-28 2.75261e-05 -1.63246e-26 2.75052e-05)
(2.72215e-05 2.52169e-05 2.05731e-29 2.72628e-05 -1.35743e-32 2.72401e-05)
(2.69575e-05 2.50654e-05 1.94331e-27 2.69998e-05 3.40764e-28 2.69765e-05)
(2.67008e-05 2.49251e-05 1.83531e-27 2.6745e-05 4.23754e-28 2.67204e-05)
(2.64468e-05 2.47906e-05 -2.44177e-27 2.64919e-05 -6.66624e-28 2.64669e-05)
(2.62022e-05 2.46678e-05 -1.91251e-27 2.62483e-05 1.59989e-26 2.62225e-05)
(2.59639e-05 2.45518e-05 2e-27 2.60099e-05 -1.60346e-26 2.59842e-05)
(2.574e-05 2.44509e-05 -1.61222e-27 2.57864e-05 -8.69163e-28 2.57602e-05)
(2.55236e-05 2.43579e-05 2.04032e-27 2.55698e-05 9.13185e-28 2.55438e-05)
(2.53209e-05 2.42784e-05 6.28456e-28 2.53671e-05 9.5977e-29 2.53409e-05)
(2.51272e-05 2.42066e-05 -1.41588e-27 2.51725e-05 -2.04057e-28 2.51469e-05)
(2.49491e-05 2.41484e-05 1.36821e-29 2.49937e-05 4.73595e-26 2.49683e-05)
(2.4782e-05 2.40995e-05 -6.80903e-28 2.48256e-05 -3.69112e-26 2.48008e-05)
(2.46292e-05 2.40621e-05 7.13092e-28 2.46716e-05 5.16168e-28 2.46474e-05)
(2.44887e-05 2.40344e-05 -1.7065e-29 2.45297e-05 -2.63945e-26 2.45062e-05)
(2.43617e-05 2.40168e-05 7.41277e-29 2.44012e-05 -2.71704e-26 2.43785e-05)
(2.42482e-05 2.4009e-05 2.22949e-27 2.4286e-05 1.6772e-27 2.42642e-05)
(2.41476e-05 2.40104e-05 -2.39776e-27 2.41837e-05 4.12531e-26 2.41629e-05)
(2.406e-05 2.40205e-05 7.56938e-29 2.40942e-05 -7.34827e-32 2.40744e-05)
(2.39851e-05 2.40389e-05 -3.9464e-29 2.40175e-05 1.46813e-26 2.39987e-05)
(2.39223e-05 2.40647e-05 -1.12005e-27 2.39527e-05 -1.54799e-26 2.3935e-05)
(2.38715e-05 2.4098e-05 1.20869e-27 2.38999e-05 7.60852e-28 2.38832e-05)
(2.3832e-05 2.41374e-05 -4.05699e-29 2.38582e-05 1.49613e-26 2.38428e-05)
(2.38038e-05 2.41833e-05 2.85542e-29 2.3828e-05 -4.49939e-26 2.38137e-05)
(2.37862e-05 2.42346e-05 1.07074e-27 2.38083e-05 -2.92093e-26 2.37952e-05)
(2.3779e-05 2.42911e-05 -2.357e-27 2.37989e-05 -1.54583e-27 2.3787e-05)
(2.37815e-05 2.43521e-05 1.26527e-27 2.37993e-05 7.73858e-28 2.37886e-05)
(2.3794e-05 2.44179e-05 -5.2365e-29 2.38096e-05 -2.94881e-26 2.38001e-05)
(2.38156e-05 2.44875e-05 -2.5194e-30 2.38291e-05 -7.24622e-27 2.38208e-05)
(2.38463e-05 2.45609e-05 5.78058e-28 2.38577e-05 7.62852e-27 2.38506e-05)
(2.38855e-05 2.46374e-05 -6.19521e-28 2.38948e-05 -1.45566e-26 2.38889e-05)
(2.39327e-05 2.47164e-05 3.79068e-29 2.39399e-05 -1.39316e-26 2.39352e-05)
(2.39872e-05 2.47972e-05 5.85462e-28 2.39923e-05 3.53439e-28 2.39887e-05)
(2.40487e-05 2.48794e-05 -6.16138e-28 2.40518e-05 -1.04028e-26 2.40493e-05)
(2.41173e-05 2.49636e-05 3.1408e-28 2.41183e-05 7.58483e-29 2.4117e-05)
(2.4193e-05 2.50498e-05 -3.05954e-28 2.4192e-05 1.23661e-26 2.41919e-05)
(2.4276e-05 2.51385e-05 3.07324e-28 2.42731e-05 -5.96006e-27 2.42741e-05)
(2.43665e-05 2.52291e-05 -3.12313e-28 2.43615e-05 7.3144e-27 2.43636e-05)
(2.44638e-05 2.53218e-05 1.43962e-28 2.44569e-05 1.52316e-27 2.44601e-05)
(2.45667e-05 2.54143e-05 -3.11863e-28 2.4558e-05 -5.60739e-27 2.45623e-05)
(2.46741e-05 2.55057e-05 8.66194e-29 2.46637e-05 -6.00044e-28 2.4669e-05)
(2.47851e-05 2.55952e-05 6.45245e-29 2.4773e-05 3.76001e-27 2.47793e-05)
(2.48998e-05 2.56832e-05 -1.62825e-30 2.48859e-05 -2.06918e-27 2.48932e-05)
(2.5019e-05 2.5771e-05 -5.00388e-30 2.50032e-05 9.06921e-28 2.50116e-05)
(2.51447e-05 2.58611e-05 -4.05284e-30 2.51272e-05 -6.8806e-29 2.51365e-05)
(2.52783e-05 2.59551e-05 4.90041e-29 2.52589e-05 2.49293e-28 2.52693e-05)
(2.54198e-05 2.60525e-05 -4.26454e-29 2.53987e-05 -2.45977e-28 2.54101e-05)
(2.55675e-05 2.61508e-05 -1.57133e-28 2.55447e-05 1.60792e-27 2.5557e-05)
(2.57172e-05 2.62452e-05 1.61945e-28 2.56931e-05 -1.4577e-27 2.57063e-05)
(2.58652e-05 2.63315e-05 9.01012e-31 2.58399e-05 1.49154e-34 2.58538e-05)
(2.60097e-05 2.64086e-05 3.17215e-28 2.59831e-05 -4.98367e-28 2.59978e-05)
(2.61533e-05 2.64809e-05 -6.46154e-28 2.61253e-05 4.47773e-28 2.61408e-05)
(2.63032e-05 2.65574e-05 3.40591e-28 2.62734e-05 -1.70739e-27 2.62898e-05)
(2.6466e-05 2.66455e-05 1.20272e-29 2.64344e-05 4.75525e-31 2.64518e-05)
(2.66431e-05 2.6745e-05 6.49013e-28 2.66098e-05 5.07101e-29 2.66281e-05)
(2.6827e-05 2.6846e-05 -1.30844e-27 2.67927e-05 -8.48297e-29 2.68116e-05)
(2.70063e-05 2.69349e-05 6.58088e-28 2.69714e-05 3.41397e-29 2.69908e-05)
(2.71725e-05 2.70039e-05 -2.51822e-30 2.71371e-05 -4.25335e-28 2.71569e-05)
(2.73277e-05 2.7058e-05 6.71452e-28 2.72916e-05 2.44599e-29 2.73119e-05)
(2.7483e-05 2.71117e-05 1.11823e-29 2.74456e-05 -1.55876e-29 2.74666e-05)
(2.76504e-05 2.71786e-05 -1.97421e-27 2.76116e-05 2.96082e-27 2.76332e-05)
(2.78333e-05 2.72605e-05 1.29273e-27 2.77932e-05 -8.91237e-29 2.78155e-05)
(2.80247e-05 2.73475e-05 1.34425e-27 2.79838e-05 -1.56585e-27 2.80065e-05)
(2.82125e-05 2.74262e-05 -1.3673e-27 2.81714e-05 -1.20009e-28 2.81943e-05)
(2.83888e-05 2.74892e-05 -7.8885e-30 2.83478e-05 1.68198e-27 2.83708e-05)
(2.85542e-05 2.7539e-05 -3.46372e-34 2.85131e-05 -8.24644e-27 2.85362e-05)
(2.87146e-05 2.75839e-05 -2.12796e-31 2.86732e-05 4.82716e-27 2.86965e-05)
(2.88759e-05 2.76309e-05 2.47695e-29 2.88343e-05 -1.00759e-26 2.88576e-05)
(2.90389e-05 2.76801e-05 2.52555e-29 2.89971e-05 1.0501e-26 2.90206e-05)
(2.92009e-05 2.77287e-05 7.47561e-31 2.91593e-05 5.64384e-27 2.91826e-05)
(2.93583e-05 2.77725e-05 -1.46053e-29 2.9317e-05 3.80916e-30 2.93403e-05)
(2.95084e-05 2.78099e-05 -2.72712e-27 2.94678e-05 6.71707e-28 2.94907e-05)
(2.96495e-05 2.78397e-05 2.67656e-27 2.96096e-05 -6.67958e-28 2.96321e-05)
(2.97813e-05 2.78629e-05 -2.6944e-27 2.97425e-05 7.12174e-28 2.97644e-05)
(2.99028e-05 2.78785e-05 2.63597e-27 2.9865e-05 -7.94726e-27 2.98864e-05)
(3.00142e-05 2.78878e-05 8.71127e-29 2.99778e-05 -2.1955e-26 2.99985e-05)
(3.01134e-05 2.78894e-05 5.10685e-29 3.00785e-05 1.48007e-26 3.00984e-05)
(3.02004e-05 2.78831e-05 6.01551e-31 3.0167e-05 -2.95782e-26 3.01862e-05)
(3.02755e-05 2.78707e-05 -9.30494e-32 3.02441e-05 -4.43063e-26 3.02622e-05)
(3.0334e-05 2.78486e-05 -3.74079e-29 3.03049e-05 -5.25783e-32 3.03217e-05)
(3.03795e-05 2.78199e-05 2.74392e-27 3.03527e-05 -2.93857e-26 3.03684e-05)
(3.04047e-05 2.77798e-05 -5.28291e-27 3.0381e-05 4.29804e-26 3.03949e-05)
(3.04141e-05 2.77306e-05 -1.15778e-28 3.03925e-05 1.32293e-26 3.04055e-05)
(3.04053e-05 2.76745e-05 2.63085e-27 3.0388e-05 -1.31374e-26 3.03984e-05)
(3.03709e-05 2.76022e-05 3.4895e-29 3.03563e-05 1.24683e-26 3.03655e-05)
(3.03208e-05 2.75248e-05 -1.06384e-28 3.03105e-05 5.93277e-30 3.03172e-05)
(3.02399e-05 2.74282e-05 7.87124e-28 3.02333e-05 -4.31761e-29 3.0238e-05)
(3.01421e-05 2.73243e-05 8.03477e-28 3.01393e-05 -3.85199e-29 3.0142e-05)
(3.00181e-05 2.72072e-05 -8.27095e-28 3.00198e-05 1.94519e-27 3.00199e-05)
(2.98731e-05 2.70815e-05 8.26247e-28 2.98795e-05 -1.93572e-27 2.98772e-05)
(2.96866e-05 2.69291e-05 -1.55596e-27 2.9699e-05 4.56489e-29 2.9693e-05)
(2.94768e-05 2.67558e-05 3.79989e-28 2.94896e-05 -8.843e-30 2.9484e-05)
(2.92614e-05 2.65878e-05 1.43237e-30 2.92794e-05 2.77611e-31 2.92702e-05)
(2.9018e-05 2.64009e-05 2.57603e-31 2.90384e-05 -1.25793e-29 2.90284e-05)
(2.62769e-05 1.02096e-05 -5.79451e-29 2.63157e-05 -5.28159e-30 2.62966e-05)
(2.60674e-05 1.01507e-05 -7.71634e-26 2.61079e-05 8.83849e-28 2.60881e-05)
(2.58611e-05 1.00857e-05 4.07137e-27 2.5903e-05 -7.51137e-29 2.58831e-05)
(2.56679e-05 1.00271e-05 1.22008e-27 2.5719e-05 1.99438e-26 2.56945e-05)
(2.54542e-05 9.96134e-06 -1.4411e-25 2.55109e-05 6.1471e-27 2.54843e-05)
(2.52485e-05 9.89406e-06 -2.83735e-25 2.53076e-05 1.53426e-26 2.52799e-05)
(2.50395e-05 9.82654e-06 1.11817e-27 2.51029e-05 -1.08231e-26 2.50734e-05)
(2.48331e-05 9.75747e-06 -8.2073e-28 2.48986e-05 2.27602e-26 2.48683e-05)
(2.46327e-05 9.68938e-06 -8.05096e-28 2.47009e-05 3.99476e-26 2.46694e-05)
(2.44362e-05 9.62131e-06 1.14874e-27 2.4506e-05 5.98591e-26 2.4474e-05)
(2.42476e-05 9.55475e-06 1.1801e-25 2.43188e-05 2.27469e-27 2.42862e-05)
(2.40651e-05 9.489e-06 -1.20571e-25 2.41369e-05 -2.26366e-27 2.41042e-05)
(2.38936e-05 9.4255e-06 4.11454e-28 2.3966e-05 -3.87864e-26 2.3933e-05)
(2.37293e-05 9.36349e-06 3.7455e-28 2.38018e-05 3.86836e-26 2.37689e-05)
(2.35759e-05 9.30413e-06 -7.47331e-28 2.36484e-05 -3.0419e-28 2.36155e-05)
(2.34306e-05 9.24659e-06 4.84065e-27 2.35023e-05 9.1765e-26 2.34699e-05)
(2.32975e-05 9.19196e-06 2.59489e-25 2.3368e-05 -4.25201e-26 2.33362e-05)
(2.31737e-05 9.13998e-06 -2.06133e-25 2.32429e-05 -5.34085e-26 2.32118e-05)
(2.30612e-05 9.09094e-06 -5.50644e-28 2.31286e-05 1.02635e-25 2.30984e-05)
(2.2959e-05 9.04494e-06 -1.15773e-25 2.30243e-05 1.03148e-25 2.29951e-05)
(2.28676e-05 9.00196e-06 -1.41986e-25 2.29306e-05 2.36261e-26 2.29024e-05)
(2.27868e-05 8.96222e-06 4.52733e-27 2.28473e-05 -5.73887e-26 2.28204e-05)
(2.27166e-05 8.92563e-06 1.98985e-25 2.27744e-05 -7.8164e-26 2.27488e-05)
(2.26568e-05 8.89221e-06 -2.03011e-27 2.27117e-05 3.49806e-29 2.26874e-05)
(2.26071e-05 8.86198e-06 5.4782e-26 2.2659e-05 1.9197e-27 2.26361e-05)
(2.25671e-05 8.8349e-06 -5.71962e-26 2.26159e-05 8.74073e-26 2.25944e-05)
(2.25366e-05 8.81098e-06 2.13294e-27 2.25823e-05 2.88438e-26 2.25623e-05)
(2.25153e-05 8.79009e-06 5.23948e-26 2.25576e-05 2.07125e-27 2.25391e-05)
(2.25029e-05 8.77232e-06 -1.85512e-25 2.25419e-05 2.37253e-26 2.2525e-05)
(2.2499e-05 8.75751e-06 -1.23034e-25 2.25347e-05 2.48383e-26 2.25193e-05)
(2.25033e-05 8.74562e-06 2.1701e-27 2.25357e-05 6.10933e-26 2.25218e-05)
(2.25156e-05 8.7366e-06 -2.12249e-27 2.25445e-05 -7.86992e-28 2.25322e-05)
(2.25356e-05 8.73046e-06 -1.26858e-25 2.25612e-05 8.36964e-26 2.25504e-05)
(2.2563e-05 8.72713e-06 -2.5155e-26 2.25852e-05 -1.05745e-27 2.2576e-05)
(2.25977e-05 8.72648e-06 2.74565e-26 2.26165e-05 6.78774e-28 2.26088e-05)
(2.2639e-05 8.72846e-06 -6.48672e-26 2.26545e-05 -4.39191e-26 2.26483e-05)
(2.26868e-05 8.73304e-06 -6.23868e-26 2.2699e-05 -4.35262e-26 2.26943e-05)
(2.27403e-05 8.73998e-06 2.88166e-28 2.27493e-05 -7.05009e-27 2.2746e-05)
(2.27994e-05 8.74932e-06 -4.96032e-26 2.28052e-05 1.87662e-26 2.28034e-05)
(2.28639e-05 8.76087e-06 1.63215e-27 2.28665e-05 -1.93818e-28 2.28661e-05)
(2.2934e-05 8.7747e-06 6.34517e-26 2.29335e-05 -1.04412e-26 2.29345e-05)
(2.30099e-05 8.79096e-06 -2.86355e-26 2.30062e-05 2.31429e-26 2.30086e-05)
(2.30914e-05 8.80952e-06 3.97226e-26 2.30846e-05 -4.55506e-27 2.30884e-05)
(2.31782e-05 8.83035e-06 6.17058e-27 2.31685e-05 1.5304e-28 2.31736e-05)
(2.32696e-05 8.85323e-06 -3.24249e-26 2.3257e-05 7.35846e-27 2.32634e-05)
(2.33645e-05 8.87792e-06 -2.90738e-27 2.33491e-05 -2.58722e-28 2.33568e-05)
(2.34622e-05 8.90426e-06 2.33016e-26 2.3444e-05 6.58352e-27 2.34528e-05)
(2.35625e-05 8.93223e-06 -1.37303e-26 2.35415e-05 -5.56691e-27 2.35516e-05)
(2.36659e-05 8.96203e-06 6.47762e-27 2.36422e-05 -2.03798e-27 2.36535e-05)
(2.37739e-05 8.9939e-06 -5.00019e-28 2.37473e-05 -2.57078e-28 2.376e-05)
(2.38876e-05 9.02804e-06 1.80484e-27 2.38581e-05 2.67841e-28 2.38721e-05)
(2.40071e-05 9.06445e-06 -1.71364e-27 2.39749e-05 8.28069e-28 2.39901e-05)
(2.41314e-05 9.10274e-06 1.64722e-26 2.40967e-05 4.32442e-27 2.41129e-05)
(2.42574e-05 9.14233e-06 -1.67465e-26 2.42205e-05 -4.70648e-27 2.42377e-05)
(2.43822e-05 9.18243e-06 6.80277e-29 2.43432e-05 1.25353e-27 2.43612e-05)
(2.45038e-05 9.22284e-06 -7.36444e-27 2.44627e-05 -1.39458e-27 2.44817e-05)
(2.46239e-05 9.26398e-06 7.3024e-27 2.45804e-05 2.08446e-27 2.46004e-05)
(2.47473e-05 9.30693e-06 -3.37873e-26 2.47012e-05 -2.03748e-27 2.47225e-05)
(2.48794e-05 9.35276e-06 1.14544e-28 2.48305e-05 1.57993e-27 2.48531e-05)
(2.50216e-05 9.40151e-06 5.07009e-32 2.49702e-05 -5.19842e-29 2.4994e-05)
(2.51694e-05 9.45208e-06 -4.21339e-32 2.51162e-05 -5.65574e-28 2.51407e-05)
(2.53141e-05 9.50236e-06 -3.06303e-29 2.52596e-05 1.30755e-27 2.52846e-05)
(2.5449e-05 9.55107e-06 -9.93972e-26 2.53934e-05 1.15206e-27 2.54187e-05)
(2.55743e-05 9.59855e-06 3.03804e-26 2.55173e-05 8.89325e-29 2.55432e-05)
(2.56975e-05 9.64651e-06 2.01999e-28 2.56387e-05 -1.0931e-27 2.56654e-05)
(2.58276e-05 9.69682e-06 -1.39439e-25 2.57667e-05 5.96249e-27 2.57945e-05)
(2.59681e-05 9.74994e-06 -2.92535e-28 2.59053e-05 -1.59897e-27 2.5934e-05)
(2.61146e-05 9.80454e-06 3.10736e-26 2.60505e-05 -1.017e-26 2.60799e-05)
(2.62586e-05 9.85861e-06 5.17833e-28 2.61939e-05 -1.91889e-28 2.62234e-05)
(2.63937e-05 9.91091e-06 -3.16925e-26 2.63287e-05 -2.84316e-26 2.63582e-05)
(2.65193e-05 9.96147e-06 1.42775e-25 2.6454e-05 6.9633e-27 2.64836e-05)
(2.66395e-05 1.00111e-05 -6.33462e-26 2.65737e-05 6.69254e-28 2.66036e-05)
(2.67584e-05 1.00607e-05 1.26793e-25 2.66922e-05 -1.17875e-26 2.67222e-05)
(2.68771e-05 1.01104e-05 -1.42693e-25 2.68107e-05 -3.10235e-26 2.68408e-05)
(2.69938e-05 1.01594e-05 -6.422e-26 2.69276e-05 -5.68141e-26 2.69576e-05)
(2.71059e-05 1.02071e-05 -3.44757e-28 2.70402e-05 -1.72527e-29 2.707e-05)
(2.72115e-05 1.0253e-05 4.24692e-31 2.71468e-05 -7.03306e-28 2.71761e-05)
(2.73091e-05 1.02968e-05 3.9268e-35 2.72455e-05 7.0117e-28 2.72742e-05)
(2.73984e-05 1.03382e-05 -4.98815e-28 2.73363e-05 5.48746e-26 2.73643e-05)
(2.74787e-05 1.0377e-05 6.36164e-26 2.74184e-05 -1.27167e-28 2.74455e-05)
(2.755e-05 1.04131e-05 2.32913e-25 2.74918e-05 2.6636e-26 2.75179e-05)
(2.7611e-05 1.04461e-05 -1.31733e-25 2.75553e-05 1.61752e-27 2.75802e-05)
(2.76617e-05 1.04755e-05 2.93242e-25 2.76085e-05 8.56188e-26 2.76322e-05)
(2.77021e-05 1.05017e-05 4.32097e-25 2.76521e-05 -3.41086e-26 2.76743e-05)
(2.77299e-05 1.05241e-05 1.08684e-27 2.76834e-05 8.76957e-26 2.77039e-05)
(2.77461e-05 1.05419e-05 3.03292e-25 2.77037e-05 2.62937e-26 2.77224e-05)
(2.77478e-05 1.05559e-05 -4.30806e-25 2.77101e-05 -1.10084e-25 2.77264e-05)
(2.77359e-05 1.05637e-05 -1.72839e-25 2.77024e-05 -2.60281e-26 2.77169e-05)
(2.77107e-05 1.05686e-05 1.3299e-25 2.76834e-05 2.48514e-26 2.76948e-05)
(2.76665e-05 1.05656e-05 -1.31982e-25 2.76443e-05 -8.49873e-26 2.76535e-05)
(2.76094e-05 1.05584e-05 -7.18847e-28 2.75936e-05 5.74055e-26 2.75996e-05)
(2.75308e-05 1.0544e-05 -8.70458e-28 2.75211e-05 1.42727e-28 2.75244e-05)
(2.7438e-05 1.05237e-05 -7.65745e-28 2.74342e-05 -3.7751e-26 2.74348e-05)
(2.7327e-05 1.04977e-05 -3.25118e-26 2.73299e-05 -3.33382e-26 2.73273e-05)
(2.71988e-05 1.04656e-05 3.22293e-26 2.72092e-05 -2.85626e-26 2.72034e-05)
(2.7044e-05 1.04274e-05 1.87287e-27 2.7062e-05 -1.5514e-28 2.70522e-05)
(2.68693e-05 1.03788e-05 -4.2932e-28 2.68899e-05 3.03861e-29 2.68794e-05)
(2.66882e-05 1.03291e-05 -1.82483e-29 2.6715e-05 -3.03657e-27 2.67012e-05)
(2.64879e-05 1.02729e-05 1.17555e-27 2.65193e-05 1.2313e-29 2.65038e-05)
(2.48799e-05 1.03408e-05 6.76903e-29 2.4942e-05 -6.90378e-33 2.49111e-05)
(2.46979e-05 1.02804e-05 9.47363e-26 2.4761e-05 -5.22628e-27 2.47293e-05)
(2.45115e-05 1.02093e-05 -9.51614e-27 2.45823e-05 -2.65875e-28 2.45474e-05)
(2.43374e-05 1.01474e-05 8.03659e-25 2.44212e-05 2.21015e-26 2.4379e-05)
(2.41539e-05 1.00834e-05 1.61739e-25 2.42483e-05 6.36247e-26 2.42013e-05)
(2.39751e-05 1.00156e-05 3.19929e-25 2.40751e-05 2.31804e-26 2.40252e-05)
(2.37968e-05 9.9498e-06 -1.7801e-25 2.39044e-05 8.13125e-26 2.38506e-05)
(2.36213e-05 9.88258e-06 3.5882e-25 2.37341e-05 7.17776e-26 2.36779e-05)
(2.34521e-05 9.81733e-06 5.96275e-25 2.35699e-05 1.12179e-25 2.3511e-05)
(2.32878e-05 9.75279e-06 7.6064e-25 2.34096e-05 -8.42529e-26 2.33488e-05)
(2.31312e-05 9.69031e-06 -4.54939e-27 2.3256e-05 1.46606e-25 2.31936e-05)
(2.29811e-05 9.6292e-06 -2.87656e-27 2.31079e-05 -1.57873e-25 2.30446e-05)
(2.28406e-05 9.57061e-06 -3.35436e-25 2.29689e-05 3.70729e-26 2.29047e-05)
(2.27074e-05 9.51401e-06 3.41791e-25 2.28368e-05 1.30046e-25 2.27722e-05)
(2.25841e-05 9.46037e-06 4.07953e-27 2.27138e-05 -1.31806e-25 2.26489e-05)
(2.24689e-05 9.40909e-06 7.24314e-25 2.25979e-05 -1.30244e-25 2.25334e-05)
(2.23639e-05 9.36054e-06 -3.03093e-25 2.24915e-05 -6.67272e-26 2.24276e-05)
(2.22679e-05 9.31513e-06 -4.16373e-25 2.23936e-05 1.44199e-25 2.23307e-05)
(2.21817e-05 9.27262e-06 7.26223e-25 2.23047e-05 -9.52704e-26 2.22431e-05)
(2.21047e-05 9.23334e-06 7.03743e-25 2.22246e-05 -6.22404e-26 2.21645e-05)
(2.20371e-05 9.197e-06 1.11661e-25 2.21532e-05 -1.27182e-25 2.20951e-05)
(2.19789e-05 9.16383e-06 -3.91322e-25 2.2091e-05 2.21102e-25 2.20348e-05)
(2.19297e-05 9.13395e-06 -4.3753e-25 2.20373e-05 -7.68021e-27 2.19834e-05)
(2.18895e-05 9.10712e-06 6.91542e-27 2.19923e-05 -1.97382e-28 2.19408e-05)
(2.1858e-05 9.08356e-06 7.30837e-27 2.19558e-05 -2.57147e-25 2.19068e-05)
(2.18349e-05 9.06295e-06 5.37094e-25 2.19273e-05 -6.07793e-26 2.1881e-05)
(2.182e-05 9.04554e-06 1.50386e-25 2.19069e-05 -2.66014e-26 2.18633e-05)
(2.18129e-05 9.03101e-06 8.34716e-30 2.1894e-05 -1.94073e-26 2.18533e-05)
(2.18134e-05 9.01947e-06 1.40777e-25 2.18887e-05 -1.80878e-25 2.18509e-05)
(2.18211e-05 9.01083e-06 1.40449e-25 2.18905e-05 -1.09083e-25 2.18556e-05)
(2.18357e-05 9.005e-06 3.39779e-25 2.18992e-05 7.02128e-27 2.18673e-05)
(2.18572e-05 9.00196e-06 2.34348e-27 2.19145e-05 -3.00803e-26 2.18857e-05)
(2.18851e-05 9.00168e-06 4.79197e-25 2.19363e-05 -4.04422e-26 2.19106e-05)
(2.19193e-05 9.00406e-06 -7.38813e-27 2.19644e-05 6.80043e-26 2.19417e-05)
(2.19595e-05 9.0091e-06 -3.48882e-27 2.19986e-05 -1.54067e-25 2.19789e-05)
(2.20054e-05 9.01663e-06 -2.76464e-25 2.20384e-05 1.83766e-25 2.20218e-05)
(2.20566e-05 9.02664e-06 -2.70129e-25 2.20836e-05 6.85731e-26 2.207e-05)
(2.21128e-05 9.03892e-06 -3.37146e-26 2.21338e-05 -1.23694e-25 2.21232e-05)
(2.21735e-05 9.05328e-06 1.08391e-25 2.21886e-05 2.87364e-26 2.21809e-05)
(2.22387e-05 9.06979e-06 -2.73589e-27 2.2248e-05 1.37454e-28 2.22433e-05)
(2.23085e-05 9.08848e-06 -6.69778e-26 2.2312e-05 -5.06058e-27 2.23101e-05)
(2.2383e-05 9.10947e-06 1.726e-25 2.23807e-05 -2.61394e-26 2.23817e-05)
(2.24621e-05 9.13264e-06 -3.66895e-26 2.24541e-05 3.70159e-26 2.2458e-05)
(2.25456e-05 9.15806e-06 1.17552e-27 2.25321e-05 -1.8484e-27 2.25388e-05)
(2.26329e-05 9.18537e-06 5.44899e-26 2.26138e-05 7.90533e-27 2.26233e-05)
(2.27231e-05 9.21444e-06 -1.29006e-28 2.26987e-05 7.90957e-28 2.27108e-05)
(2.28156e-05 9.245e-06 5.92788e-26 2.27859e-05 -3.98911e-27 2.28007e-05)
(2.29102e-05 9.27707e-06 -5.04701e-26 2.28752e-05 6.67556e-27 2.28927e-05)
(2.3007e-05 9.31082e-06 -2.08936e-26 2.29668e-05 8.01882e-28 2.29869e-05)
(2.31072e-05 9.34645e-06 -2.29582e-27 2.30618e-05 5.50558e-29 2.30845e-05)
(2.32116e-05 9.38419e-06 2.59368e-27 2.31611e-05 4.5323e-27 2.31864e-05)
(2.33203e-05 9.42398e-06 1.04e-26 2.32649e-05 -5.34379e-28 2.32926e-05)
(2.34329e-05 9.46557e-06 6.04849e-26 2.33726e-05 -8.19157e-27 2.34028e-05)
(2.35471e-05 9.50832e-06 -7.15243e-26 2.34821e-05 7.36143e-27 2.35146e-05)
(2.36604e-05 9.55145e-06 2.06701e-26 2.35909e-05 1.43653e-28 2.36257e-05)
(2.3771e-05 9.59464e-06 -2.03153e-26 2.36972e-05 5.60162e-28 2.37342e-05)
(2.38797e-05 9.63821e-06 4.10816e-26 2.38015e-05 -1.70246e-26 2.38407e-05)
(2.39898e-05 9.68327e-06 -4.60426e-26 2.39073e-05 5.23654e-27 2.39487e-05)
(2.41055e-05 9.7308e-06 4.13665e-26 2.40186e-05 -3.02657e-27 2.40622e-05)
(2.42285e-05 9.78107e-06 -1.89156e-28 2.41374e-05 -9.04005e-27 2.41831e-05)
(2.43559e-05 9.83277e-06 -4.17815e-26 2.4261e-05 -4.59232e-29 2.43086e-05)
(2.44814e-05 9.88397e-06 1.26162e-25 2.43831e-05 8.88518e-27 2.44324e-05)
(2.45994e-05 9.93333e-06 2.76711e-25 2.44979e-05 -1.87569e-27 2.45488e-05)
(2.47089e-05 9.98108e-06 8.41533e-26 2.46044e-05 -1.08045e-28 2.46569e-05)
(2.4815e-05 1.00289e-05 8.58044e-26 2.47076e-05 -2.42644e-27 2.47615e-05)
(2.49244e-05 1.00784e-05 -3.96317e-25 2.48141e-05 -2.52005e-27 2.48694e-05)
(2.50402e-05 1.013e-05 8.42339e-26 2.49273e-05 -3.68338e-27 2.49839e-05)
(2.51603e-05 1.01828e-05 3.80224e-25 2.5045e-05 1.04321e-26 2.51029e-05)
(2.52783e-05 1.02348e-05 -1.53787e-27 2.51612e-05 -6.40433e-27 2.52199e-05)
(2.5389e-05 1.02844e-05 7.68795e-25 2.52706e-05 5.07076e-26 2.533e-05)
(2.54913e-05 1.03318e-05 -1.52308e-25 2.53719e-05 7.64643e-26 2.54318e-05)
(2.55878e-05 1.03779e-05 -1.54524e-27 2.54677e-05 -7.10509e-26 2.5528e-05)
(2.56813e-05 1.0423e-05 1.75176e-25 2.55608e-05 9.23083e-26 2.56213e-05)
(2.5773e-05 1.04677e-05 5.80678e-25 2.56525e-05 -3.8638e-26 2.5713e-05)
(2.58619e-05 1.05113e-05 9.68246e-25 2.57417e-05 1.01252e-26 2.5802e-05)
(2.59458e-05 1.05528e-05 4.56107e-27 2.58265e-05 -9.9476e-26 2.58864e-05)
(2.60234e-05 1.05923e-05 0 2.59056e-05 0 2.59647e-05)
(2.60933e-05 1.06287e-05 4.42641e-27 2.59776e-05 1.45326e-28 2.60357e-05)
(2.61554e-05 1.06627e-05 -8.02989e-25 2.60422e-05 -5.03456e-26 2.6099e-05)
(2.62088e-05 1.06932e-05 -2.13106e-27 2.60988e-05 -7.75455e-26 2.6154e-05)
(2.62537e-05 1.07204e-05 -3.25671e-25 2.61474e-05 1.76049e-27 2.62007e-05)
(2.62891e-05 1.07442e-05 4.66686e-27 2.61871e-05 1.12523e-26 2.62383e-05)
(2.6315e-05 1.07638e-05 -1.14814e-24 2.62176e-05 -7.39852e-26 2.62664e-05)
(2.63313e-05 1.07799e-05 4.90003e-25 2.62394e-05 1.44736e-25 2.62855e-05)
(2.63369e-05 1.07921e-05 -1.19458e-24 2.62513e-05 -8.1167e-26 2.62942e-05)
(2.63318e-05 1.0799e-05 -3.49803e-25 2.62533e-05 9.75129e-26 2.62927e-05)
(2.63151e-05 1.08021e-05 1.53555e-24 2.62445e-05 -3.55798e-26 2.62798e-05)
(2.6286e-05 1.07983e-05 3.45868e-25 2.62234e-05 9.2073e-26 2.62549e-05)
(2.62463e-05 1.07921e-05 -3.84459e-25 2.61936e-05 4.38317e-26 2.62199e-05)
(2.61915e-05 1.07784e-05 1.40796e-24 2.61484e-05 -9.85912e-26 2.61701e-05)
(2.61256e-05 1.07599e-05 -1.02089e-24 2.6093e-05 -6.47889e-26 2.61092e-05)
(2.60436e-05 1.07358e-05 -6.94653e-27 2.60216e-05 2.20835e-26 2.60326e-05)
(2.5949e-05 1.07049e-05 8.36131e-25 2.59374e-05 -3.22849e-26 2.59432e-05)
(2.58406e-05 1.067e-05 8.39487e-25 2.58405e-05 -4.7712e-26 2.58405e-05)
(2.57178e-05 1.06294e-05 8.41019e-25 2.573e-05 3.03438e-26 2.57241e-05)
(2.55772e-05 1.05858e-05 2.06929e-27 2.56007e-05 4.78647e-26 2.55886e-05)
(2.54184e-05 1.05298e-05 -2.15968e-28 2.54483e-05 -2.29088e-29 2.54337e-05)
(2.52526e-05 1.04731e-05 2.08255e-25 2.52923e-05 3.0611e-27 2.52721e-05)
(2.50727e-05 1.04115e-05 -1.10207e-27 2.51207e-05 1.70346e-29 2.5097e-05)
(2.39845e-05 1.03863e-05 -4.80593e-28 2.40766e-05 -3.24875e-30 2.40305e-05)
(2.38188e-05 1.03233e-05 -1.05964e-24 2.391e-05 4.28691e-27 2.38642e-05)
(2.36426e-05 1.02483e-05 -1.3646e-26 2.37503e-05 5.36934e-26 2.36969e-05)
(2.34818e-05 1.01844e-05 1.21265e-24 2.36032e-05 -6.7491e-26 2.3542e-05)
(2.33166e-05 1.0122e-05 2.09669e-24 2.34541e-05 -1.21471e-25 2.33854e-05)
(2.31554e-05 1.00549e-05 2.02055e-27 2.33021e-05 1.25926e-25 2.32287e-05)
(2.29976e-05 9.9915e-06 2.06924e-24 2.31547e-05 -6.22878e-26 2.3076e-05)
(2.28433e-05 9.92741e-06 1.57229e-24 2.30088e-05 -2.92892e-25 2.2926e-05)
(2.2696e-05 9.8655e-06 2.09479e-24 2.28685e-05 -1.81653e-25 2.2782e-05)
(2.25544e-05 9.80518e-06 -1.32628e-24 2.27333e-05 -1.53125e-25 2.26438e-05)
(2.24211e-05 9.74786e-06 2.4501e-24 2.26043e-05 -2.59289e-25 2.25124e-05)
(2.22947e-05 9.69188e-06 -2.45103e-24 2.24814e-05 6.19134e-26 2.23879e-05)
(2.21775e-05 9.63897e-06 4.81008e-25 2.23665e-05 -2.6678e-25 2.22717e-05)
(2.2068e-05 9.58884e-06 1.47656e-24 2.22589e-05 -4.67407e-25 2.21633e-05)
(2.1968e-05 9.54168e-06 -1.50525e-24 2.21592e-05 4.46271e-25 2.20633e-05)
(2.18762e-05 9.49768e-06 -1.25553e-24 2.20667e-05 -2.33857e-25 2.19713e-05)
(2.17939e-05 9.45629e-06 2.00135e-26 2.19824e-05 1.61258e-25 2.18879e-05)
(2.17203e-05 9.41848e-06 7.96655e-25 2.19062e-05 7.65185e-26 2.1813e-05)
(2.16556e-05 9.38353e-06 -8.17918e-25 2.18377e-05 -1.47505e-25 2.17464e-05)
(2.15997e-05 9.3519e-06 -7.99588e-25 2.17773e-05 -5.96313e-25 2.16882e-05)
(2.15524e-05 9.32361e-06 -1.39747e-24 2.17246e-05 6.28498e-25 2.16382e-05)
(2.15135e-05 9.29813e-06 1.79215e-24 2.16799e-05 -6.01129e-25 2.15964e-05)
(2.14829e-05 9.27617e-06 4.09799e-25 2.16427e-05 6.12847e-26 2.15626e-05)
(2.14604e-05 9.257e-06 -2.60999e-26 2.16131e-05 6.05882e-26 2.15365e-05)
(2.14456e-05 9.24136e-06 -1.83048e-24 2.15909e-05 -2.32933e-26 2.1518e-05)
(2.14384e-05 9.22845e-06 -5.41793e-25 2.15758e-05 -1.28142e-25 2.15068e-05)
(2.14383e-05 9.21837e-06 -2.03135e-25 2.15676e-05 -1.04794e-25 2.15027e-05)
(2.14452e-05 9.21122e-06 -1.89689e-26 2.15659e-05 -1.85131e-25 2.15053e-05)
(2.14587e-05 9.20712e-06 -1.81422e-24 2.15708e-05 1.83418e-25 2.15145e-05)
(2.14786e-05 9.20554e-06 -1.08494e-24 2.15818e-05 3.14848e-25 2.153e-05)
(2.15045e-05 9.20692e-06 4.8179e-26 2.15988e-05 -7.98046e-26 2.15515e-05)
(2.15363e-05 9.21078e-06 -2.16633e-25 2.16215e-05 -2.47117e-25 2.15787e-05)
(2.15738e-05 9.21723e-06 -5.7841e-25 2.16498e-05 -1.56534e-25 2.16116e-05)
(2.16165e-05 9.2262e-06 4.10527e-25 2.16835e-05 3.60521e-26 2.16498e-05)
(2.16645e-05 9.23763e-06 -1.09143e-24 2.17223e-05 3.38919e-25 2.16932e-05)
(2.17173e-05 9.25134e-06 1.29038e-24 2.1766e-05 4.45007e-26 2.17415e-05)
(2.17746e-05 9.26722e-06 3.50864e-25 2.18143e-05 8.98746e-26 2.17943e-05)
(2.18362e-05 9.28535e-06 -1.00212e-24 2.18668e-05 1.91794e-25 2.18514e-05)
(2.19016e-05 9.30504e-06 1.15481e-25 2.19234e-05 -1.11233e-26 2.19124e-05)
(2.19708e-05 9.32677e-06 -1.12708e-28 2.19839e-05 2.64629e-26 2.19773e-05)
(2.20439e-05 9.35077e-06 1.00746e-25 2.20482e-05 4.82689e-27 2.2046e-05)
(2.21207e-05 9.37694e-06 -2.90903e-25 2.21164e-05 -2.36298e-26 2.21185e-05)
(2.22014e-05 9.40499e-06 4.53532e-25 2.21885e-05 -4.78792e-26 2.21949e-05)
(2.22858e-05 9.43505e-06 -4.43956e-27 2.22645e-05 2.58681e-29 2.22751e-05)
(2.23733e-05 9.46699e-06 8.50823e-31 2.23437e-05 -1.06511e-26 2.23585e-05)
(2.24632e-05 9.50023e-06 7.67537e-31 2.24254e-05 -5.00712e-27 2.24443e-05)
(2.2555e-05 9.535e-06 1.81119e-26 2.25091e-05 4.77995e-27 2.25321e-05)
(2.26484e-05 9.57118e-06 4.82919e-26 2.25946e-05 9.85933e-27 2.26215e-05)
(2.27434e-05 9.6086e-06 2.36676e-26 2.26818e-05 3.09368e-27 2.27126e-05)
(2.28407e-05 9.64774e-06 2.4371e-28 2.27713e-05 4.60696e-28 2.28061e-05)
(2.29411e-05 9.68866e-06 7.07842e-26 2.28641e-05 -1.93599e-27 2.29027e-05)
(2.30449e-05 9.73144e-06 -1.44315e-26 2.29604e-05 -3.10569e-27 2.30027e-05)
(2.31514e-05 9.7757e-06 -9.71054e-26 2.30596e-05 -5.92932e-27 2.31056e-05)
(2.32593e-05 9.82077e-06 9.87517e-26 2.31604e-05 3.36234e-26 2.32099e-05)
(2.33663e-05 9.86624e-06 -5.60394e-28 2.32605e-05 -4.54232e-27 2.33136e-05)
(2.34709e-05 9.9113e-06 -1.55084e-27 2.33584e-05 6.16995e-27 2.34148e-05)
(2.35731e-05 9.9563e-06 -4.70623e-25 2.34541e-05 8.69046e-27 2.35138e-05)
(2.36757e-05 1.00027e-05 1.11278e-25 2.35502e-05 3.44055e-26 2.36131e-05)
(2.37814e-05 1.00508e-05 -1.10971e-25 2.36498e-05 -8.18104e-27 2.37158e-05)
(2.38923e-05 1.01012e-05 -4.77031e-25 2.37546e-05 1.15618e-26 2.38236e-05)
(2.40062e-05 1.01528e-05 1.65445e-27 2.38628e-05 -1.52186e-26 2.39347e-05)
(2.41185e-05 1.02037e-05 1.07622e-24 2.39697e-05 -9.39805e-27 2.40443e-05)
(2.42245e-05 1.02523e-05 -5.21162e-25 2.40708e-05 2.26069e-28 2.41479e-05)
(2.4323e-05 1.02988e-05 2.47791e-30 2.41647e-05 -1.07711e-28 2.42441e-05)
(2.4417e-05 1.03447e-05 2.27621e-25 2.42546e-05 9.5958e-28 2.4336e-05)
(2.45117e-05 1.03916e-05 -4.16235e-26 2.43456e-05 -3.78032e-27 2.44289e-05)
(2.46102e-05 1.04404e-05 2.29147e-25 2.44404e-05 2.789e-27 2.45256e-05)
(2.47108e-05 1.04896e-05 -4.19101e-25 2.45378e-05 4.39694e-27 2.46246e-05)
(2.48092e-05 1.05374e-05 2.36754e-25 2.46336e-05 4.89834e-27 2.47216e-05)
(2.4901e-05 1.05828e-05 -1.84223e-24 2.47234e-05 1.62697e-26 2.48125e-05)
(2.49849e-05 1.06252e-05 -2.02675e-24 2.4806e-05 -1.97955e-26 2.48957e-05)
(2.50626e-05 1.06653e-05 1.79499e-24 2.48828e-05 8.41544e-26 2.4973e-05)
(2.51359e-05 1.07046e-05 -2.0343e-24 2.4956e-05 -5.81831e-26 2.50463e-05)
(2.52061e-05 1.07425e-05 7.01472e-25 2.50265e-05 1.28703e-25 2.51166e-05)
(2.52724e-05 1.07788e-05 -4.00472e-25 2.50937e-05 1.7391e-25 2.51833e-05)
(2.53332e-05 1.08126e-05 2.06787e-24 2.51561e-05 8.99294e-26 2.52449e-05)
(2.53874e-05 1.08437e-05 8.64429e-27 2.52128e-05 3.26307e-28 2.53004e-05)
(2.54339e-05 1.08717e-05 -4.84066e-27 2.52627e-05 2.82031e-26 2.53486e-05)
(2.54725e-05 1.08962e-05 8.81393e-25 2.53054e-05 -1.07705e-25 2.53892e-05)
(2.55024e-05 1.09173e-05 1.62137e-24 2.53403e-05 1.09574e-25 2.54217e-05)
(2.55238e-05 1.09346e-05 5.01036e-25 2.53676e-05 -4.08658e-26 2.5446e-05)
(2.55362e-05 1.09483e-05 -5.04004e-25 2.53867e-05 2.43119e-27 2.54617e-05)
(2.55393e-05 1.09572e-05 1.90641e-24 2.53971e-05 -6.62859e-26 2.54684e-05)
(2.55331e-05 1.09615e-05 -1.40689e-24 2.53994e-05 -1.46683e-26 2.54665e-05)
(2.55174e-05 1.0962e-05 1.4152e-24 2.53933e-05 -1.23623e-25 2.54555e-05)
(2.54916e-05 1.0957e-05 -9.97007e-25 2.53784e-05 1.4987e-25 2.54353e-05)
(2.54563e-05 1.09487e-05 -4.14334e-25 2.53547e-05 2.10828e-25 2.54056e-05)
(2.54095e-05 1.09329e-05 -2.17712e-24 2.53204e-05 -6.87879e-26 2.53653e-05)
(2.53544e-05 1.09153e-05 -5.23677e-25 2.52791e-05 -2.49576e-25 2.53167e-05)
(2.52866e-05 1.08909e-05 1.75688e-24 2.52258e-05 2.96128e-26 2.52565e-05)
(2.52094e-05 1.08629e-05 1.45329e-24 2.51635e-05 -2.7416e-25 2.51865e-05)
(2.51196e-05 1.08298e-05 -5.09081e-25 2.50892e-05 -2.14021e-26 2.51045e-05)
(2.50189e-05 1.079e-05 9.97935e-25 2.50039e-05 -3.16462e-26 2.50115e-05)
(2.49076e-05 1.07478e-05 1.52072e-24 2.49088e-05 1.20608e-25 2.49082e-05)
(2.47843e-05 1.07004e-05 -9.34899e-25 2.48027e-05 3.48405e-26 2.47937e-05)