/*--------------------------------*- C++ -*----------------------------------*\
| =========                 |                                                 |
| \\      /  F ield         | OpenFOAM: The Open Source CFD Toolbox           |
|  \\    /   O peration     | Version:  2306                                  |
|   \\  /    A nd           | Website:  www.openfoam.com                      |
|    \\/     M anipulation  |                                                 |
\*---------------------------------------------------------------------------*/
// * * * * * * * * * * * * * * * * * * * * * * * * * * * * * * * * * * * * * //
FoamFile
{
    version         2;
    format          ascii;
    class           volSymmTensorField;
    location        "0";
    object          S;
}

dimensions      [ 0 0 -1 0 0 0 0 ];

internalField   nonuniform List<symmTensor> 
14751
(
(0.000375273 -0.811028 -9.6156e-24 -0.000407937 -1.46684e-25 6.15812e-51)
(0.000399749 -0.806661 9.71254e-24 -0.000450254 2.70164e-23 -6.15844e-51)
(0.0003936 -0.802618 1.91524e-23 -0.00041832 -8.10518e-25 -2.02603e-46)
(0.000474254 -0.798151 2.70914e-23 -0.000576571 -2.38403e-25 2.31688e-46)
(0.000525382 -0.792133 -1.97811e-25 -0.000610332 2.01766e-22 0)
(0.000537864 -0.786405 -1.1384e-23 -0.000647236 5.0596e-22 1.46491e-44)
(0.000574219 -0.780014 -6.36372e-25 -0.000703289 4.19884e-28 0)
(0.000587433 -0.773403 -5.99617e-23 -0.000719285 -1.05144e-23 -3.90011e-45)
(0.000602784 -0.766606 -5.64474e-23 -0.000757743 -1.30331e-23 3.48405e-45)
(0.000613681 -0.759563 7.48137e-23 -0.00076792 2.04248e-23 -9.44567e-46)
(0.000617872 -0.752463 5.83387e-23 -0.000789875 -4.88029e-22 -1.41925e-44)
(0.00061558 -0.745263 -6.07096e-23 -0.00078235 4.86726e-22 -1.40309e-44)
(0.000611265 -0.73814 4.86708e-23 -0.000791862 2.62389e-23 2.23016e-45)
(0.000605708 -0.730967 -6.12291e-23 -0.000779765 -2.74042e-23 8.0833e-47)
(0.000597057 -0.723915 -1.87388e-23 -0.000780437 -2.86177e-24 -1.64856e-46)
(0.000583339 -0.71689 4.1932e-23 -0.000760027 6.04324e-24 -6.97403e-46)
(0.000565666 -0.710101 -4.02333e-25 -0.000745883 -1.39264e-21 0)
(0.000548169 -0.703435 1.98747e-23 -0.000723792 1.07739e-21 -6.23873e-44)
(0.000526863 -0.69702 -2.06565e-23 -0.00070132 -1.49521e-23 -8.65268e-46)
(0.000504742 -0.690822 4.905e-25 -0.000674846 7.58658e-22 0)
(0.000479956 -0.684903 -2.11395e-24 -0.000646095 7.74835e-22 0)
(0.000454891 -0.679261 -6.30764e-23 -0.000616227 -4.74512e-23 -2.58425e-47)
(0.00042878 -0.6739 6.7298e-23 -0.000585285 -1.15785e-21 2.58425e-47)
(0.000401758 -0.668845 -2.10768e-24 -0.000552111 2.04611e-27 0)
(0.000374733 -0.664095 1.09023e-24 -0.000519614 -4.05583e-22 0)
(0.000347368 -0.659654 3.07023e-23 -0.000485354 4.24329e-22 -6.82624e-48)
(0.000319926 -0.655529 -3.28795e-23 -0.000451951 -2.06972e-23 6.82624e-48)
(0.000292268 -0.651718 1.0954e-24 -0.000416647 -4.03961e-22 0)
(0.000265039 -0.64823 -7.65393e-25 -0.00038304 1.20606e-21 -1.09122e-45)
(0.000238301 -0.645048 -2.84996e-23 -0.000348743 7.77459e-22 8.24839e-46)
(0.000211696 -0.642179 6.23118e-23 -0.000315185 4.08669e-23 -4.45559e-45)
(0.000185447 -0.639615 -3.32327e-23 -0.000281304 -2.03256e-23 2.22386e-45)
(0.000159543 -0.637357 1.36683e-24 -0.000248392 7.69699e-22 -6.96413e-46)
(0.000134274 -0.635395 6.53728e-26 -0.000215637 1.88023e-22 -3.40241e-46)
(0.000109492 -0.633726 -1.49152e-23 -0.000183795 -1.96833e-22 -1.18366e-48)
(8.53409e-05 -0.632343 1.59006e-23 -0.000151931 3.73611e-22 1.18366e-48)
(6.20294e-05 -0.631242 -9.68117e-25 -0.000121284 3.55805e-22 0)
(3.92808e-05 -0.630409 -1.4884e-23 -9.11178e-05 -8.98536e-24 -8.94055e-49)
(1.67338e-05 -0.629847 1.55981e-23 -6.11189e-05 2.63357e-22 8.94054e-49)
(-5.45476e-06 -0.629546 -7.92064e-24 -3.2105e-05 -1.91278e-24 -1.79179e-49)
(-2.75061e-05 -0.629503 7.68864e-24 -2.84823e-06 -3.10762e-22 1.79179e-49)
(-4.92102e-05 -0.629718 -7.69846e-24 2.52889e-05 1.49299e-22 -1.38269e-49)
(-7.03515e-05 -0.630183 7.80107e-24 5.33623e-05 -1.82702e-22 1.38269e-49)
(-9.05128e-05 -0.630893 -3.58683e-24 7.99584e-05 -3.79495e-23 5.9406e-47)
(-0.000109484 -0.631835 7.75335e-24 0.000106303 1.39408e-22 -6.08735e-47)
(-0.000127615 -0.633003 -2.14973e-24 0.000131267 1.48919e-23 4.68704e-47)
(-0.000145396 -0.634389 -1.59927e-24 0.000156549 -9.31937e-23 7.32537e-47)
(-0.00016339 -0.635993 4.03203e-26 0.000180824 5.12393e-23 0)
(-0.000182501 -0.637814 1.23842e-25 0.000206559 -2.24457e-23 -3.4471e-50)
(-0.000202662 -0.639868 1.00277e-25 0.000231907 1.70243e-24 3.27418e-49)
(-0.000222824 -0.642151 -1.2124e-24 0.00025747 -6.16773e-24 -5.68652e-49)
(-0.000241865 -0.644664 1.05525e-24 0.000281844 6.08663e-24 2.75705e-49)
(-0.000258246 -0.647389 3.88999e-24 0.00030467 -3.98057e-23 4.70599e-51)
(-0.000271617 -0.650303 -4.01266e-24 0.000325191 3.61189e-23 -4.70599e-51)
(-0.000283097 -0.653386 -2.23576e-26 0.000344893 -3.70109e-30 0)
(-0.000295348 -0.656629 -7.8873e-24 0.00036412 1.23915e-23 3.37689e-47)
(-0.000311872 -0.660049 1.61057e-23 0.000386532 -1.11609e-23 -7.19791e-47)
(-0.000333223 -0.663687 -8.51159e-24 0.000410666 4.26687e-23 7.68144e-47)
(-0.000356395 -0.667567 -3.01325e-25 0.000436089 -1.19136e-26 -1.08667e-50)
(-0.000375923 -0.671687 -1.62996e-23 0.000458589 -1.27356e-24 4.67093e-47)
(-0.000387617 -0.675997 3.29473e-23 0.000476692 2.13606e-24 -1.15487e-46)
(-0.000392237 -0.680435 -1.66248e-23 0.000489989 -8.62446e-25 6.87781e-47)
(-0.000395531 -0.68496 6.38754e-26 0.000502476 1.07887e-23 0)
(-0.000404348 -0.689589 -1.71124e-23 0.000517096 -6.23376e-25 4.03136e-47)
(-0.000421429 -0.694374 -2.86396e-25 0.000536118 3.99224e-25 -1.83491e-46)
(-0.00044264 -0.699372 5.08013e-23 0.000556969 -7.61892e-23 1.55659e-46)
(-0.000460842 -0.704576 -3.34121e-23 0.000575483 2.3035e-24 -8.40444e-47)
(-0.000471075 -0.709949 -3.48971e-23 0.00058973 4.06498e-23 -1.49245e-47)
(-0.000473386 -0.715413 3.5666e-23 0.000597531 3.13044e-24 3.55007e-48)
(-0.000473032 -0.720925 2.06882e-25 0.000603934 -4.41112e-23 0)
(-0.000475129 -0.726481 9.13733e-30 0.00060969 2.17542e-22 0)
(-0.000480733 -0.732104 5.64781e-27 0.000617929 -1.28118e-22 0)
(-0.000487237 -0.737807 -6.61402e-25 0.000624023 2.6905e-22 4.86864e-46)
(-0.000491791 -0.743578 -6.78444e-25 0.000629885 -2.82092e-22 -5.10466e-46)
(-0.000493044 -0.749388 -2.02034e-26 0.000631177 -1.52529e-22 0)
(-0.000490822 -0.755209 3.97158e-25 0.000631975 -1.03581e-25 3.69482e-49)
(-0.000485074 -0.761006 7.46265e-23 0.000626092 -1.8381e-23 -8.94755e-48)
(-0.000477164 -0.76674 -7.37159e-23 0.000620196 1.83964e-23 8.94756e-48)
(-0.00046715 -0.772398 7.46925e-23 0.00060932 -1.97425e-23 -9.54176e-48)
(-0.000455466 -0.777942 -7.35561e-23 0.00059815 2.21766e-22 9.54176e-48)
(-0.000440626 -0.783366 -2.44699e-24 0.0005822 6.16712e-22 2.23197e-45)
(-0.000423125 -0.788603 -1.44402e-24 0.000563052 -4.18506e-22 -1.51463e-45)
(-0.00040536 -0.793657 -1.71224e-26 0.000544561 8.41906e-22 0)
(-0.00038105 -0.798523 2.66596e-27 0.000518241 1.26942e-21 0)
(-0.000354959 -0.803061 1.07872e-24 0.000486266 1.51619e-27 0)
(-0.000322916 -0.807352 -7.96304e-23 0.000456738 8.52792e-22 -4.35107e-45)
(-0.000287483 -0.81117 1.54261e-22 0.000405311 -1.25503e-21 1.29985e-44)
(-0.00025306 -0.814657 3.40128e-24 0.000381976 -3.88643e-22 -1.29884e-44)
(-0.000204275 -0.817674 -7.77313e-23 0.000307106 3.88158e-22 3.98964e-45)
(-0.000160476 -0.820063 -1.03673e-24 0.000273166 -3.70434e-22 0)
(-0.000108321 -0.822077 3.17735e-24 0.000198984 -1.77193e-25 1.28075e-48)
(-5.52373e-05 -0.82328 -2.36261e-23 0.000142009 1.29597e-24 7.49239e-47)
(-4.80025e-06 -0.824079 -2.42322e-23 8.20158e-05 1.16173e-24 6.72074e-47)
(5.23731e-05 -0.824107 2.50527e-23 2.77697e-06 -5.89199e-23 3.41328e-45)
(0.00012645 -0.823583 -2.51272e-23 -6.83534e-05 5.88675e-23 3.40736e-45)
(0.000194265 -0.821966 4.74932e-23 -0.000181932 -1.39336e-24 1.61979e-46)
(0.000220965 -0.819965 -1.16452e-23 -0.000171265 2.71005e-25 7.88303e-48)
(0.000270467 -0.817683 -4.40512e-26 -0.000283297 -8.53768e-27 0)
(0.000319773 -0.814527 -7.9476e-27 -0.000307105 3.88098e-25 0)
(0.000518102 -0.267799 1.51991e-24 -0.000500318 1.38537e-25 0)
(0.000541682 -0.26644 2.02543e-21 -0.000521592 -2.31997e-23 -1.17168e-44)
(0.000577958 -0.264928 -1.06945e-22 -0.000523235 1.97306e-24 5.55244e-45)
(0.000699339 -0.263114 -3.20152e-23 -0.000642173 -5.2333e-22 -2.75816e-47)
(0.000787726 -0.260862 3.77387e-21 -0.000695907 -1.60977e-22 -2.06717e-43)
(0.000821087 -0.258532 7.41399e-21 -0.000723392 -4.00902e-22 -1.07342e-42)
(0.000881711 -0.255954 -2.91252e-23 -0.00076977 2.81913e-22 0)
(0.000915492 -0.253226 2.12996e-23 -0.000786143 -5.90673e-22 5.6908e-46)
(0.000947445 -0.250365 2.0803e-23 -0.000812429 -1.03221e-21 7.02716e-46)
(0.000973839 -0.247379 -2.95358e-23 -0.000822474 -1.53907e-21 0)
(0.000987523 -0.244323 -3.01762e-21 -0.000834775 -5.81658e-23 4.94612e-45)
(0.000994397 -0.241207 3.06489e-21 -0.000829915 5.75415e-23 2.10918e-44)
(0.000995424 -0.238063 -1.03922e-23 -0.000832428 9.79643e-22 -1.39391e-45)
(0.000994599 -0.234889 -9.39583e-24 -0.000823426 -9.70403e-22 -7.24928e-46)
(0.000986401 -0.231727 1.86129e-23 -0.000818294 7.57611e-24 1.50154e-46)
(0.000971566 -0.228576 -1.19661e-22 -0.000799401 -2.26844e-21 6.32767e-46)
(0.000949392 -0.225482 -6.36535e-21 -0.000780468 1.04303e-21 -3.09464e-42)
(0.000926074 -0.222436 5.01656e-21 -0.000756704 1.29978e-21 -2.98163e-41)
(0.000896445 -0.219471 1.32935e-23 -0.000730191 -2.47778e-21 -1.08031e-42)
(0.00086427 -0.21659 2.77229e-21 -0.000700609 -2.46997e-21 -8.02946e-42)
(0.000827988 -0.213811 3.37241e-21 -0.000668238 -5.61158e-22 6.20255e-42)
(0.000790652 -0.211137 -1.06657e-22 -0.000634767 1.352e-21 -6.90502e-42)
(0.000751102 -0.208576 -4.64992e-21 -0.000600084 1.82655e-21 1.61346e-41)
(0.000709758 -0.206134 4.70609e-23 -0.000563594 -8.10899e-25 0)
(0.000667641 -0.203816 -1.25993e-21 -0.000527292 -4.41512e-23 -6.21058e-45)
(0.000624809 -0.201626 1.30531e-21 -0.000489924 -1.99477e-21 6.1943e-45)
(0.00058133 -0.199566 -4.83103e-23 -0.000452974 -6.53301e-22 0)
(0.000537204 -0.197638 -1.17805e-21 -0.000415002 -4.65702e-23 2.78817e-42)
(0.00049339 -0.195844 4.14158e-21 -0.000378176 -5.29672e-22 -6.64685e-42)
(0.000450155 -0.194182 2.72804e-21 -0.000341388 -5.50744e-22 -9.18688e-43)
(0.000406883 -0.192652 -4.78038e-23 -0.0003052 -1.34579e-21 0)
(0.000364004 -0.191253 4.64634e-23 -0.000269113 1.72281e-23 0)
(0.000321638 -0.189985 2.76058e-21 -0.000233943 -1.82133e-21 8.56677e-42)
(0.000280185 -0.188845 5.44326e-22 -0.00019931 2.2882e-23 -4.64727e-46)
(0.000239258 -0.187831 -5.9098e-22 -0.000165602 -1.46101e-23 7.57749e-46)
(0.000198934 -0.186942 1.38929e-21 -0.000132364 9.40638e-22 -4.67958e-42)
(0.000159675 -0.186178 1.33001e-21 -0.000100343 9.27926e-22 -4.57313e-42)
(0.000121166 -0.185534 -6.11725e-24 -6.90919e-05 1.49661e-22 0)
(8.32849e-05 -0.185012 1.0489e-21 -3.82998e-05 -3.96828e-22 8.53614e-43)
(4.62375e-05 -0.184603 -3.43915e-23 -8.30558e-06 4.08399e-24 -4.90176e-43)
(9.64181e-06 -0.184306 -1.33276e-21 2.17476e-05 2.19309e-22 -4.50355e-44)
(-2.64178e-05 -0.184121 5.99752e-22 5.10336e-05 -4.84713e-22 1.6783e-43)
(-6.15817e-05 -0.184044 -8.29863e-22 7.98893e-05 9.5162e-23 -4.66588e-44)
(-9.58655e-05 -0.184074 -1.28629e-22 0.000107329 -3.1902e-24 -9.58326e-44)
(-0.000129159 -0.184213 6.74677e-22 0.000133842 -1.5311e-22 6.25085e-44)
(-0.000161704 -0.18446 6.04078e-23 0.000159061 5.37557e-24 1.64718e-44)
(-0.000193683 -0.184816 -4.83647e-22 0.000184152 -1.36647e-22 -2.25913e-43)
(-0.000225396 -0.185278 2.84803e-22 0.00020895 1.15473e-22 -6.80488e-44)
(-0.000257521 -0.185842 -1.34324e-22 0.000235229 4.22608e-23 7.86564e-45)
(-0.000289913 -0.186503 1.03687e-23 0.000262022 5.33091e-24 5.59135e-46)
(-0.00032195 -0.187255 -3.7435e-23 0.000289032 -5.55542e-24 9.50641e-50)
(-0.000353259 -0.1881 3.55605e-23 0.000314733 -1.71836e-23 -9.50764e-50)
(-0.000382671 -0.18904 -3.42085e-22 0.00033795 -8.98069e-23 -1.1487e-43)
(-0.00041029 -0.190084 3.48187e-22 0.000358039 9.78555e-23 -1.19418e-43)
(-0.000436558 -0.191238 -1.41678e-24 0.000376453 -2.61067e-23 0)
(-0.000462994 -0.192503 1.53713e-22 0.000395236 2.91082e-23 9.47461e-48)
(-0.00049149 -0.193867 -1.52817e-22 0.000418405 -4.36214e-23 -9.47995e-48)
(-0.000522183 -0.195315 7.09057e-22 0.000445768 4.27584e-23 -1.47705e-43)
(-0.000553308 -0.196829 -2.41059e-24 0.000475162 -3.32496e-23 9.32008e-51)
(-0.000582354 -0.198411 -1.07e-27 0.000500832 1.09708e-24 0)
(-0.000606947 -0.200079 8.91882e-28 0.000519103 1.19719e-23 0)
(-0.000627342 -0.201858 6.50675e-25 0.000530232 -2.77761e-23 0)
(-0.00064629 -0.203757 2.12048e-21 0.000540059 -2.45774e-23 3.54024e-44)
(-0.000667088 -0.205764 -6.51264e-22 0.00055466 -1.90644e-24 1.69185e-44)
(-0.00069137 -0.207845 -4.35231e-24 0.000577013 2.35521e-23 0)
(-0.000717049 -0.209973 3.01939e-21 0.000603196 -1.29111e-22 1.43032e-42)
(-0.00074078 -0.212142 6.36504e-24 0.000626193 3.47908e-23 1.79606e-48)
(-0.000759767 -0.21437 -6.79402e-22 0.000641594 2.2236e-22 7.59565e-44)
(-0.000773328 -0.216678 -1.13813e-23 0.000648528 4.21745e-24 -1.40134e-43)
(-0.000783971 -0.219076 7.00548e-22 0.000652957 6.28467e-22 6.41741e-44)
(-0.0007944 -0.221551 -3.17542e-21 0.000658537 -1.5487e-22 2.43114e-43)
(-0.000804926 -0.224079 1.41788e-21 0.000667622 -1.498e-23 -4.88527e-43)
(-0.000814459 -0.226641 -2.8563e-21 0.000676155 2.65541e-22 4.43627e-43)
(-0.000821304 -0.229229 3.23523e-21 0.000682973 7.03384e-22 -4.86234e-42)
(-0.000825117 -0.231841 1.46552e-21 0.000684962 1.29652e-21 1.51657e-42)
(-0.000825188 -0.234478 7.91977e-24 0.000684063 3.9633e-25 -3.26459e-49)
(-0.000820429 -0.237134 -9.82234e-27 0.000677251 1.62661e-23 0)
(-0.000811773 -0.239794 -9.14485e-31 0.00066859 -1.63291e-23 0)
(-0.000799544 -0.24245 1.16981e-23 0.000655552 -1.2869e-21 0)
(-0.00078381 -0.245083 -1.50248e-21 0.000640629 3.00342e-24 2.87022e-42)
(-0.000763079 -0.247685 -5.54003e-21 0.000620844 -6.33561e-22 -4.10811e-42)
(-0.000737966 -0.250237 3.15567e-21 0.000596981 -3.87479e-23 -2.9733e-42)
(-0.000711029 -0.252726 -7.07457e-21 0.000572164 -2.06558e-21 -3.13328e-41)
(-0.0006752 -0.255143 -1.04979e-20 0.000539311 8.28679e-22 4.42552e-41)
(-0.000634736 -0.257454 -2.65879e-23 0.000500863 -2.14534e-21 0)
(-0.000585057 -0.259649 -7.47013e-21 0.000459406 -6.4762e-22 1.94764e-42)
(-0.000530864 -0.261701 1.06805e-20 0.000403961 2.72919e-21 -1.20594e-41)
(-0.000473441 -0.263584 4.31265e-21 0.000361354 6.4945e-22 -1.57439e-41)
(-0.000400249 -0.265306 -3.33849e-21 0.000286181 -6.23851e-22 -4.68593e-45)
(-0.000328436 -0.266781 3.33252e-21 0.000231726 2.14592e-21 5.03251e-45)
(-0.000248102 -0.26807 1.8251e-23 0.000154138 -1.45748e-21 -1.19624e-48)
(-0.000164018 -0.269081 2.22138e-23 8.41379e-05 -3.64236e-24 -7.02821e-47)
(-8.23055e-05 -0.269874 1.96371e-23 1.44825e-05 9.68104e-22 -6.33055e-47)
(9.03908e-06 -0.270375 8.37362e-22 -6.75509e-05 8.58648e-22 -3.83253e-45)
(0.000119093 -0.270609 -8.33353e-22 -0.000151522 7.38543e-22 -2.62688e-45)
(0.000212963 -0.27054 -4.85918e-23 -0.000252937 4.02515e-24 -1.54262e-46)
(0.000264162 -0.270249 1.11789e-23 -0.000272018 -7.91213e-25 -7.52787e-48)
(0.000338937 -0.269757 4.7658e-25 -0.000360777 7.9304e-23 -3.3589e-49)
(0.00041701 -0.26894 -3.07754e-23 -0.00040534 -3.22349e-25 3.77039e-48)
(0.000687843 -0.228398 -1.49509e-24 -0.000684477 1.52485e-28 0)
(0.000692586 -0.226993 -2.0918e-21 -0.000700125 1.15397e-22 -3.94677e-45)
(0.000793254 -0.225322 2.10024e-22 -0.000769944 5.86793e-24 -4.90242e-45)
(0.000915536 -0.223445 -1.76964e-20 -0.000928731 -4.86672e-22 -2.87193e-41)
(0.00104053 -0.221335 -3.55022e-21 -0.0010308 -1.39658e-21 1.963e-43)
(0.00109604 -0.21909 -6.99843e-21 -0.00109311 -5.07069e-22 1.00409e-42)
(0.00117203 -0.216681 3.87661e-21 -0.00117191 -1.77078e-21 2.33376e-42)
(0.00122556 -0.214145 -7.77524e-21 -0.00121855 -1.55535e-21 -1.42382e-41)
(0.00126806 -0.211518 -1.28469e-20 -0.00126916 -2.41693e-21 -8.84763e-41)
(0.00130709 -0.208807 -1.62853e-20 -0.00130108 1.80385e-21 1.18443e-41)
(0.00132585 -0.206062 9.67416e-23 -0.00132793 -3.11755e-21 0)
(0.00134086 -0.203292 6.073e-23 -0.00133589 3.33302e-21 0)
(0.00134337 -0.200519 7.02791e-21 -0.00134619 -7.76733e-22 -2.82712e-44)
(0.00134581 -0.19775 -7.10419e-21 -0.00134289 -2.70304e-21 2.80812e-44)
(0.0013351 -0.195016 -8.40952e-23 -0.00133876 2.71705e-21 0)
(0.00131857 -0.192321 -1.48049e-20 -0.00131815 2.66219e-21 1.76461e-41)
(0.00129067 -0.189687 6.14203e-21 -0.00129425 1.35219e-21 2.84913e-42)
(0.00126109 -0.18712 8.364e-21 -0.00126326 -2.89663e-21 5.57236e-41)
(0.00122281 -0.184635 -1.44604e-20 -0.00122671 1.89701e-21 -1.11615e-41)
(0.00118091 -0.182239 -1.38898e-20 -0.00118483 1.22844e-21 -1.14777e-41)
(0.00113397 -0.179937 -2.18462e-21 -0.00113848 2.48829e-21 -3.10861e-42)
(0.00108472 -0.177737 7.58987e-21 -0.00108952 -4.28837e-21 1.20247e-40)
(0.00103242 -0.175644 8.41362e-21 -0.00103785 1.47689e-22 -3.41475e-41)
(0.000977835 -0.173659 -1.31867e-22 -0.000983116 3.76379e-24 0)
(0.000921668 -0.171789 -1.38216e-22 -0.000927577 4.86317e-21 0)
(0.000864538 -0.17003 -1.00764e-20 -0.000870089 1.14028e-21 9.677e-42)
(0.000806104 -0.168388 -2.79952e-21 -0.000812206 4.95202e-22 -1.89345e-41)
(0.000747013 -0.16686 -1.54225e-25 -0.000752666 3.58577e-22 0)
(0.000687946 -0.165448 -2.58233e-21 -0.000694073 3.31793e-21 3.47386e-42)
(0.000629517 -0.164149 -2.55854e-21 -0.000635212 1.98715e-21 8.25469e-43)
(0.000570934 -0.162963 -6.14897e-21 -0.0005767 -1.27064e-22 -1.92256e-41)
(0.000512905 -0.161889 -4.21447e-23 -0.000518267 5.40959e-22 0)
(0.000455388 -0.160925 -8.56673e-21 -0.000460825 7.22995e-22 -1.21955e-41)
(0.000398863 -0.160069 1.31342e-22 -0.000403899 -1.20894e-21 0)
(0.000343021 -0.159319 6.16973e-23 -0.000347938 2.72457e-21 0)
(0.000287965 -0.158674 4.86518e-21 -0.000292412 -3.2339e-21 3.5448e-41)
(0.000234084 -0.158132 4.73221e-21 -0.000238247 -1.20129e-21 5.62056e-42)
(0.00018106 -0.15769 5.88172e-22 -0.000185057 2.15792e-21 4.89454e-43)
(0.000129189 -0.157344 -1.88381e-21 -0.000132818 -4.99434e-22 -1.05102e-42)
(7.86032e-05 -0.157094 4.73872e-23 -8.18822e-05 -2.38079e-24 0)
(2.84356e-05 -0.156938 1.15656e-21 -3.1181e-05 8.73849e-23 1.55326e-43)
(-2.10469e-05 -0.156874 -2.97233e-21 1.83997e-05 4.50145e-22 9.8812e-43)
(-6.92897e-05 -0.1569 6.30331e-22 6.73133e-05 -6.35938e-22 1.00957e-43)
(-0.000116881 -0.157016 -2.01545e-23 0.000115007 3.1691e-23 0)
(-0.000163355 -0.157221 -9.32672e-22 0.000162154 -1.35311e-22 -1.99449e-43)
(-0.000209136 -0.157516 2.20528e-24 0.00020816 -1.3521e-23 3.64564e-44)
(-0.000254029 -0.157898 -1.01244e-21 0.000253794 6.81312e-23 -1.81871e-43)
(-0.000298508 -0.158367 8.61564e-22 0.000298349 -1.13957e-22 -1.21465e-44)
(-0.000342726 -0.15892 3.56618e-22 0.000343263 -1.36867e-23 2.25569e-44)
(-0.000386862 -0.159554 3.9192e-23 0.00038751 -9.3986e-25 8.009e-50)
(-0.000430294 -0.160266 -4.42955e-23 0.000431463 -7.74038e-23 -8.0096e-50)
(-0.000473162 -0.161056 -1.77735e-22 0.000474594 9.13253e-24 -4.43272e-44)
(-0.000514682 -0.161926 -1.03471e-21 0.000516684 1.40132e-22 2.55385e-43)
(-0.000555108 -0.16288 1.22523e-21 0.000557493 -1.26103e-22 1.46447e-43)
(-0.000594264 -0.163922 -3.5474e-22 0.000597457 -2.46537e-24 2.83889e-47)
(-0.000633069 -0.165049 3.49468e-22 0.000636508 -9.63604e-24 -2.84117e-47)
(-0.000672348 -0.166256 -7.08646e-22 0.000676446 2.9367e-22 -5.52676e-45)
(-0.000712323 -0.167534 7.96601e-22 0.000716374 -9.05994e-23 1.31032e-43)
(-0.000751921 -0.168874 -7.17898e-22 0.000756383 5.25249e-23 5.60237e-45)
(-0.00079037 -0.170278 3.29302e-24 0.000794883 1.57378e-22 0)
(-0.000826156 -0.171754 7.29821e-22 0.000831254 8.02165e-25 2.57016e-44)
(-0.000859337 -0.173314 -2.21223e-21 0.000864998 -1.558e-22 -2.12125e-43)
(-0.000890617 -0.174963 -4.87392e-21 0.000897099 3.3038e-23 4.6181e-43)
(-0.000921429 -0.176693 -1.48975e-21 0.000928206 1.9127e-24 -9.2925e-44)
(-0.000952534 -0.178487 -1.52708e-21 0.000959473 4.3184e-23 -3.39486e-43)
(-0.000983248 -0.180327 7.09105e-21 0.000990272 4.50897e-23 1.12561e-42)
(-0.00101255 -0.182207 -1.5151e-21 0.00101945 6.62523e-23 -2.96273e-43)
(-0.0010387 -0.184141 -6.87584e-21 0.00104616 -1.88651e-22 5.03576e-43)
(-0.00106073 -0.186142 2.79695e-23 0.00106826 1.16477e-22 0)
(-0.00107921 -0.188204 -1.40689e-20 0.00108753 -9.27947e-22 -1.22747e-41)
(-0.00109561 -0.190324 2.80568e-21 0.00110377 -1.40856e-21 -2.18495e-43)
(-0.00110961 -0.192487 2.86608e-23 0.00111843 1.31784e-21 0)
(-0.00112121 -0.194677 -3.27186e-21 0.00112932 -1.72409e-21 6.8317e-42)
(-0.0011291 -0.196893 -1.09223e-20 0.0011379 7.26765e-22 1.51601e-41)
(-0.00113405 -0.199133 -1.83431e-20 0.00114202 -1.9182e-22 3.94416e-41)
(-0.00113388 -0.201389 -8.7043e-23 0.00114282 1.89839e-21 0)
(-0.00112832 -0.20366 0 0.00113616 0 0)
(-0.00111691 -0.205927 -8.57598e-23 0.00112548 -2.81564e-24 0)
(-0.00110058 -0.208194 1.56787e-20 0.0011082 9.83021e-22 5.6526e-42)
(-0.00107875 -0.210436 4.19378e-23 0.00108671 1.52604e-21 0)
(-0.00105053 -0.212642 6.4598e-21 0.00105797 -3.492e-23 1.12345e-42)
(-0.00101628 -0.214808 -9.3304e-23 0.00102302 -2.24966e-22 0)
(-0.000977854 -0.216912 2.31373e-20 0.000984673 1.49095e-21 8.99668e-42)
(-0.000929119 -0.218948 -9.95238e-21 0.000935615 -2.93971e-21 -6.04063e-41)
(-0.000873406 -0.220897 2.44512e-20 0.000877477 1.66137e-21 4.94264e-41)
(-0.000805111 -0.222732 7.21475e-21 0.000812803 -2.01122e-21 -7.23229e-41)
(-0.00073344 -0.224443 -3.19051e-20 0.000732181 7.39264e-22 1.16745e-40)
(-0.000650544 -0.225997 -7.23866e-21 0.000659618 -1.92699e-21 4.01094e-42)
(-0.000557223 -0.227417 8.10156e-21 0.000552733 -9.23647e-22 -2.19399e-41)
(-0.000454345 -0.228637 -2.98665e-20 0.00046159 2.09138e-21 1.39115e-40)
(-0.000349209 -0.229681 2.17919e-20 0.000347093 1.38298e-21 -5.83586e-42)
(-0.000235753 -0.230513 1.49152e-22 0.000237228 -4.74166e-22 0)
(-0.000124153 -0.231124 -1.80524e-20 0.000125891 6.97045e-22 4.77644e-41)
(-3.37574e-06 -0.2315 -1.82138e-20 -8.27309e-07 1.03518e-21 5.32909e-41)
(0.000136715 -0.231633 -1.83272e-20 -0.000129091 -6.61242e-22 2.91734e-42)
(0.000249787 -0.231549 -4.52624e-23 -0.000264255 -1.04696e-21 0)
(0.000336651 -0.231184 4.7416e-24 -0.000319732 5.02967e-25 0)
(0.00043018 -0.230588 -4.58519e-21 -0.000443885 -6.73968e-23 7.72755e-44)
(0.000534772 -0.22969 2.43129e-23 -0.000522271 -3.75803e-25 -3.2876e-48)
(0.000863478 -0.194637 9.0062e-24 -0.00086369 6.08809e-26 0)
(0.000847947 -0.193203 1.98314e-20 -0.000857805 -8.02306e-23 -3.7996e-43)
(0.00101558 -0.191472 2.54952e-22 -0.000996273 -1.00317e-21 -6.61099e-44)
(0.00112178 -0.189578 -2.25729e-20 -0.0011385 1.25632e-21 4.88442e-41)
(0.00127592 -0.187597 -3.88592e-20 -0.00127244 2.25129e-21 5.91153e-41)
(0.00135184 -0.18546 -3.72687e-23 -0.00135504 -2.32269e-21 0)
(0.00143764 -0.183213 -3.79433e-20 -0.00144387 1.14216e-21 -1.40786e-41)
(0.00150702 -0.180866 -2.86454e-20 -0.00150811 5.33616e-21 2.55588e-40)
(0.0015558 -0.178446 -3.78903e-20 -0.00156495 3.28571e-21 4.29473e-41)
(0.00160472 -0.17598 2.38037e-20 -0.00160662 2.74823e-21 -5.23967e-42)
(0.00162503 -0.173509 -4.36112e-20 -0.00163516 4.61527e-21 8.15754e-41)
(0.0016457 -0.17103 4.32528e-20 -0.00164922 -1.09257e-21 -1.47295e-40)
(0.00164726 -0.168571 -8.41208e-21 -0.00165775 4.66556e-21 -5.03248e-41)
(0.00165114 -0.166144 -2.55842e-20 -0.00165559 8.09868e-21 3.32829e-40)
(0.0016354 -0.163763 2.58345e-20 -0.00164606 -7.6593e-21 3.85137e-40)
(0.00161635 -0.161446 2.1342e-20 -0.00162241 3.97522e-21 -9.58462e-41)
(0.0015822 -0.15919 -3.36915e-22 -0.00159148 -2.71468e-21 0)
(0.00154559 -0.157014 -1.32809e-20 -0.00155322 -1.27563e-21 -2.31323e-41)
(0.00149888 -0.154918 1.35035e-20 -0.00150756 2.43526e-21 1.03729e-41)
(0.00144781 -0.152912 1.3074e-20 -0.00145579 9.75023e-21 1.06497e-41)
(0.00139093 -0.151002 2.2633e-20 -0.0013988 -1.0179e-20 4.47153e-40)
(0.00133047 -0.149181 -2.87537e-20 -0.00133831 9.64464e-21 4.14117e-40)
(0.00126637 -0.147464 -6.51461e-21 -0.00127445 -9.74248e-22 -7.82908e-41)
(0.00119965 -0.145843 4.11202e-22 -0.00120722 -9.54564e-22 0)
(0.00113068 -0.14433 2.85881e-20 -0.00113853 3.63791e-22 -2.65087e-40)
(0.00106061 -0.142915 8.39037e-21 -0.00106781 1.98444e-21 2.46195e-41)
(0.000988806 -0.141599 3.12025e-21 -0.000996236 1.60968e-21 -1.59424e-41)
(0.000916613 -0.140385 2.89098e-22 -0.000923185 2.82151e-21 0)
(0.000843971 -0.139273 2.74431e-20 -0.000850722 -2.7745e-21 -3.98872e-41)
(0.000772118 -0.138257 1.62945e-20 -0.000778177 -4.72866e-21 6.43573e-41)
(0.000699913 -0.137341 -7.18693e-22 -0.000705902 1.19046e-21 4.09573e-41)
(0.00062844 -0.136518 3.21083e-21 -0.000633856 3.66266e-21 -3.83858e-42)
(0.000557617 -0.135788 8.52112e-21 -0.000562857 2.30605e-21 2.87889e-43)
(0.000487876 -0.135149 -6.01357e-21 -0.000492518 -5.28106e-22 1.46538e-41)
(0.000418839 -0.1346 1.59031e-20 -0.000423225 -4.93833e-21 6.67049e-41)
(0.000350793 -0.134137 -1.87095e-20 -0.000354784 -6.45226e-22 -1.04589e-40)
(0.000284027 -0.133758 -5.06418e-21 -0.000287825 -1.2972e-21 -1.41101e-42)
(0.000218876 -0.133465 1.44042e-20 -0.000222129 -2.75679e-21 1.34122e-41)
(0.000154914 -0.133247 -1.65368e-21 -0.000157602 1.59284e-22 6.74433e-42)
(9.1782e-05 -0.13311 1.60855e-24 -9.42778e-05 -3.77674e-22 0)
(2.9695e-05 -0.133054 -1.43353e-21 -3.15347e-05 -6.8683e-23 1.49073e-42)
(-3.17195e-05 -0.133076 4.12846e-21 2.99934e-05 3.35352e-22 -2.38707e-42)
(-9.16718e-05 -0.133171 -6.42184e-21 9.05763e-05 6.7795e-22 7.293e-43)
(-0.000150944 -0.13334 6.27416e-23 0.000150036 -3.65579e-25 0)
(-0.000209085 -0.133585 -1.20056e-26 0.000208791 1.50293e-22 0)
(-0.000266598 -0.133899 -1.08179e-26 0.000266435 7.05719e-23 0)
(-0.000322663 -0.134289 -2.55084e-22 0.000323375 -6.73197e-23 -2.50714e-43)
(-0.000378362 -0.134751 -6.79892e-22 0.00037916 -1.38807e-22 4.64293e-44)
(-0.000433362 -0.135279 -3.33216e-22 0.000434732 -4.35559e-23 5.78965e-45)
(-0.000487969 -0.135877 -3.43236e-24 0.000489465 -6.48834e-24 0)
(-0.000541606 -0.136539 -9.97536e-22 0.000543645 2.72832e-23 -1.26508e-43)
(-0.00059486 -0.137267 2.03563e-22 0.000597096 4.38072e-23 2.91975e-44)
(-0.000646897 -0.13806 1.3714e-21 0.000649699 8.37386e-23 -9.92403e-44)
(-0.000698279 -0.138921 -1.3969e-21 0.000701385 -4.75623e-22 -3.6878e-44)
(-0.000748317 -0.139855 7.94362e-24 0.000752129 6.43877e-23 0)
(-0.000797612 -0.140855 2.20399e-23 0.000801641 -8.76847e-23 0)
(-0.000846196 -0.141919 6.70835e-21 0.00085085 -1.23875e-22 -1.59325e-42)
(-0.000894586 -0.143047 -1.59138e-21 0.000899191 -4.9203e-22 3.18749e-46)
(-0.000942076 -0.144227 1.59241e-21 0.000947036 1.17396e-22 -3.19262e-46)
(-0.000988906 -0.14546 6.8694e-21 0.000993887 -1.66494e-22 2.1045e-43)
(-0.00103376 -0.146757 -2.39147e-23 0.0010395 2.19982e-22 0)
(-0.001077 -0.148119 -1.56226e-20 0.00108322 1.36425e-22 -1.94009e-42)
(-0.0011179 -0.149548 7.60213e-21 0.0011247 -3.29765e-24 1.98769e-43)
(-0.00115689 -0.151041 -3.63408e-26 0.00116368 1.57968e-24 0)
(-0.00119404 -0.152585 -3.35743e-21 0.00120079 -1.41538e-23 2.84459e-43)
(-0.00122885 -0.15417 6.17526e-22 0.00123634 5.60848e-23 -2.33477e-42)
(-0.00126275 -0.1558 -3.41952e-21 0.00127034 -4.16196e-23 4.36926e-43)
(-0.0012952 -0.157473 6.29167e-21 0.00130241 -6.60083e-23 -4.60629e-43)
(-0.00132324 -0.159195 -3.57676e-21 0.0013305 -7.40018e-23 -6.50435e-42)
(-0.00134653 -0.160967 2.80209e-20 0.00135494 -2.47467e-22 1.92701e-41)
(-0.00136714 -0.162781 3.10506e-20 0.0013751 3.03275e-22 7.0135e-41)
(-0.00138249 -0.164628 -2.7707e-20 0.00139174 -1.29899e-21 -1.42087e-41)
(-0.0013949 -0.166506 3.16429e-20 0.00140374 9.05019e-22 1.28114e-41)
(-0.00140351 -0.168405 -1.09966e-20 0.00141234 -2.01762e-21 -8.97428e-41)
(-0.00140798 -0.170324 6.32817e-21 0.00141609 -2.74809e-21 -2.38933e-41)
(-0.00140616 -0.172258 -3.29435e-20 0.00141509 -1.43268e-21 1.58735e-41)
(-0.00139786 -0.174199 -1.38866e-22 0.00140621 -5.24196e-24 0)
(-0.0013824 -0.176141 7.84279e-23 0.00139144 -4.56943e-22 0)
(-0.00136142 -0.178074 -1.44044e-20 0.00136907 1.76019e-21 -5.23752e-42)
(-0.0013312 -0.179991 -2.6731e-20 0.00134055 -1.80651e-21 -4.81088e-41)
(-0.00129447 -0.181876 -8.33376e-21 0.00130361 6.79724e-22 3.28906e-41)
(-0.0012506 -0.183725 8.45778e-21 0.00125871 -4.07982e-23 -2.6017e-41)
(-0.00119979 -0.185515 -3.22772e-20 0.00120757 1.12228e-21 4.31471e-41)
(-0.0011381 -0.187227 2.40304e-20 0.0011451 2.50541e-22 2.24569e-41)
(-0.00106693 -0.188868 -2.43829e-20 0.00107179 2.12992e-21 5.97442e-43)
(-0.000978315 -0.190403 1.73253e-20 0.000988217 -2.60434e-21 1.67002e-41)
(-0.000889371 -0.191846 7.2601e-21 0.000890985 -3.6942e-21 -8.69738e-41)
(-0.000780657 -0.193146 3.8462e-20 0.000792537 1.21524e-21 1.80883e-41)
(-0.000670888 -0.194335 9.32354e-21 0.000669656 4.44344e-21 -1.52093e-41)
(-0.000540186 -0.195368 -3.15162e-20 0.000550131 -5.31216e-22 8.78615e-41)
(-0.000414418 -0.196263 -2.6257e-20 0.000415035 4.95331e-21 1.49708e-41)
(-0.000274509 -0.196983 9.25966e-21 0.000278075 3.89283e-22 -1.44902e-41)
(-0.000135473 -0.197495 -1.82658e-20 0.000139405 5.79239e-22 6.78673e-41)
(1.02652e-05 -0.197822 -2.79901e-20 -1.22149e-05 -2.21988e-21 -6.91285e-41)
(0.000174417 -0.197928 1.72931e-20 -0.00016577 -6.44454e-22 -2.78078e-42)
(0.000301503 -0.197874 4.08938e-20 -0.000315364 9.43555e-22 4.05366e-42)
(0.000426902 -0.197507 6.15587e-23 -0.000411911 4.85291e-24 0)
(0.000535541 -0.196883 4.38908e-21 -0.000549391 -8.16763e-23 -7.39711e-44)
(0.000665276 -0.195972 4.30746e-24 -0.000654994 3.14737e-25 0)
(0.00103815 -0.166708 1.18043e-23 -0.00103824 -4.20228e-24 3.6395e-45)
(0.00100647 -0.165265 -1.93497e-20 -0.00101569 -1.64845e-22 4.2374e-43)
(0.00123109 -0.163526 -8.58046e-20 -0.00121297 7.2953e-22 -1.36274e-41)
(0.00131721 -0.161675 3.90446e-20 -0.00133093 5.08525e-22 -2.5936e-41)
(0.00149298 -0.159813 8.23637e-20 -0.00148684 4.57692e-22 -1.22835e-40)
(0.00158555 -0.157802 -8.74337e-20 -0.00158525 4.2518e-21 2.08704e-40)
(0.00167622 -0.155712 3.65315e-20 -0.00167867 1.80691e-21 1.33983e-41)
(0.00175842 -0.153546 1.06005e-19 -0.00175523 -1.24918e-21 -2.91489e-40)
(0.00181122 -0.151323 4.39118e-20 -0.00181447 2.4291e-21 -1.14908e-40)
(0.00186477 -0.14909 1.83921e-20 -0.00186173 3.18076e-21 -1.76374e-40)
(0.00188532 -0.146859 7.33914e-20 -0.00188927 -1.44674e-21 2.46444e-40)
(0.00191028 -0.144647 -1.52071e-20 -0.00190657 -3.69314e-21 3.54897e-41)