/*--------------------------------*- C++ -*----------------------------------*\
| =========                 |                                                 |
| \\      /  F ield         | OpenFOAM: The Open Source CFD Toolbox           |
|  \\    /   O peration     | Version:  2306                                  |
|   \\  /    A nd           | Website:  www.openfoam.com                      |
|    \\/     M anipulation  |                                                 |
\*---------------------------------------------------------------------------*/
// * * * * * * * * * * * * * * * * * * * * * * * * * * * * * * * * * * * * * //
FoamFile
{
    version         2;
    format          ascii;
    class           volVectorField;
    location        "0";
    object          Udns;
}

dimensions      [ 0 1 -1 0 0 0 0 ];

internalField   nonuniform List<vector> 
14751
(
(0.00176426 2.53593e-07 2.09565e-06)
(0.00175565 3.40976e-07 2.04418e-06)
(0.00174572 3.6801e-07 2.01639e-06)
(0.00173446 3.68784e-07 1.99121e-06)
(0.00172192 4.54649e-07 1.94811e-06)
(0.00170822 5.2381e-07 1.92536e-06)
(0.00169353 5.0479e-07 1.89824e-06)
(0.001678 5.24522e-07 1.8607e-06)
(0.00166172 6.02415e-07 1.79534e-06)
(0.00164477 6.08792e-07 1.73602e-06)
(0.00162719 5.74812e-07 1.70419e-06)
(0.00160911 6.33845e-07 1.66885e-06)
(0.00159061 6.88089e-07 1.60529e-06)
(0.00157184 6.39685e-07 1.53155e-06)
(0.00155297 6.27878e-07 1.43933e-06)
(0.0015341 6.76618e-07 1.36653e-06)
(0.0015153 6.6589e-07 1.30007e-06)
(0.00149661 6.11923e-07 1.24164e-06)
(0.00147815 6.34383e-07 1.20416e-06)
(0.00146 6.57651e-07 1.17892e-06)
(0.00144231 5.99656e-07 1.16395e-06)
(0.00142508 5.68859e-07 1.1745e-06)
(0.00140826 5.92808e-07 1.21547e-06)
(0.00139187 5.72249e-07 1.26574e-06)
(0.00137606 5.22083e-07 1.29575e-06)
(0.00136072 5.23856e-07 1.3008e-06)
(0.00134585 5.27667e-07 1.26709e-06)
(0.00133152 4.88433e-07 1.21334e-06)
(0.00131773 4.57254e-07 1.18823e-06)
(0.00130462 4.49705e-07 1.17333e-06)
(0.00129224 4.25494e-07 1.16365e-06)
(0.00128054 3.90047e-07 1.15409e-06)
(0.00126963 3.62919e-07 1.15672e-06)
(0.00125959 3.4121e-07 1.178e-06)
(0.00125029 3.11209e-07 1.2152e-06)
(0.00124194 2.74621e-07 1.2231e-06)
(0.00123464 2.38131e-07 1.27951e-06)
(0.00122831 2.03849e-07 1.33438e-06)
(0.00122276 1.86681e-07 1.3396e-06)
(0.00121796 1.60449e-07 1.27208e-06)
(0.0012139 1.19683e-07 1.17252e-06)
(0.00121072 9.69435e-08 1.15264e-06)
(0.00120859 7.22117e-08 1.17922e-06)
(0.00120755 1.8926e-08 1.22175e-06)
(0.00120757 -2.98761e-08 1.26038e-06)
(0.00120875 -4.74589e-08 1.29764e-06)
(0.00121102 -8.08149e-08 1.34312e-06)
(0.00121416 -1.3861e-07 1.36096e-06)
(0.00121825 -1.56652e-07 1.38686e-06)
(0.00122326 -1.59049e-07 1.42906e-06)
(0.00122927 -2.24482e-07 1.47412e-06)
(0.00123624 -2.76126e-07 1.47544e-06)
(0.00124422 -2.78505e-07 1.44454e-06)
(0.00125321 -3.07459e-07 1.41172e-06)
(0.00126306 -3.7246e-07 1.36418e-06)
(0.00127372 -3.84529e-07 1.30695e-06)
(0.00128516 -3.75244e-07 1.24185e-06)
(0.00129747 -4.39295e-07 1.15756e-06)
(0.00131061 -4.93166e-07 1.12867e-06)
(0.00132448 -4.77001e-07 1.16184e-06)
(0.00133899 -4.89412e-07 1.22661e-06)
(0.00135411 -5.5125e-07 1.26592e-06)
(0.00136975 -5.57759e-07 1.27763e-06)
(0.0013859 -5.32332e-07 1.3092e-06)
(0.00140248 -5.7731e-07 1.37781e-06)
(0.0014195 -6.27551e-07 1.46698e-06)
(0.00143692 -5.98121e-07 1.53747e-06)
(0.0014546 -5.89182e-07 1.6019e-06)
(0.0014724 -6.34689e-07 1.64934e-06)
(0.00149029 -6.3336e-07 1.67319e-06)
(0.00150826 -5.96062e-07 1.70157e-06)
(0.00152623 -6.17323e-07 1.72933e-06)
(0.00154412 -6.4986e-07 1.75016e-06)
(0.00156186 -6.0666e-07 1.7731e-06)
(0.00157938 -5.81101e-07 1.81935e-06)
(0.00159662 -6.04664e-07 1.86985e-06)
(0.00161349 -5.92311e-07 1.92285e-06)
(0.00162997 -5.47683e-07 1.96852e-06)
(0.00164601 -5.45377e-07 1.99236e-06)
(0.00166155 -5.52907e-07 2.01033e-06)
(0.00167648 -5.07952e-07 2.02953e-06)
(0.00169072 -4.69611e-07 2.04103e-06)
(0.00170421 -4.63228e-07 2.05334e-06)
(0.00171685 -4.35021e-07 2.0852e-06)
(0.00172862 -3.90007e-07 2.11945e-06)
(0.00173945 -3.63386e-07 2.14843e-06)
(0.00174936 -3.37377e-07 2.16526e-06)
(0.00175827 -2.96471e-07 2.1868e-06)
(0.00176607 -2.5723e-07 2.19367e-06)
(0.00177267 -2.13359e-07 2.20435e-06)
(0.00177801 -1.65467e-07 2.23619e-06)
(0.00178205 -1.29735e-07 2.25785e-06)
(0.00178478 -8.298e-08 2.26114e-06)
(0.00178613 -1.67137e-08 2.24832e-06)
(0.00178607 2.04526e-08 2.23211e-06)
(0.00178463 4.51357e-08 2.22441e-06)
(0.00178173 1.23124e-07 2.21199e-06)
(0.00177734 1.91486e-07 2.18617e-06)
(0.00177149 2.06334e-07 2.14321e-06)
(0.00537215 7.71786e-07 6.38121e-06)
(0.00535473 1.03976e-06 6.23473e-06)
(0.00532443 1.12298e-06 6.14998e-06)
(0.00529877 1.12662e-06 6.08313e-06)
(0.00526044 1.38817e-06 5.95144e-06)
(0.00522713 1.60438e-06 5.89158e-06)
(0.00519063 1.54873e-06 5.81806e-06)
(0.00514302 1.60562e-06 5.70288e-06)
(0.00510144 1.84733e-06 5.51147e-06)
(0.00505761 1.87492e-06 5.33809e-06)
(0.00501168 1.77263e-06 5.24881e-06)
(0.00496403 1.95237e-06 5.14823e-06)
(0.00491494 2.12835e-06 4.96013e-06)
(0.00486478 1.98256e-06 4.73979e-06)
(0.00480638 1.94063e-06 4.45441e-06)
(0.00475564 2.09521e-06 4.23598e-06)
(0.00470494 2.06981e-06 4.03652e-06)
(0.0046544 1.90437e-06 3.86137e-06)
(0.0046038 1.98265e-06 3.75183e-06)
(0.00455405 2.06836e-06 3.6798e-06)
(0.00449893 1.88706e-06 3.63313e-06)
(0.00445187 1.79958e-06 3.67219e-06)
(0.00440594 1.88376e-06 3.80583e-06)
(0.00435479 1.82102e-06 3.96233e-06)
(0.0043119 1.67256e-06 4.06248e-06)
(0.00427038 1.6826e-06 4.08488e-06)
(0.0042238 1.69418e-06 3.9799e-06)
(0.00418535 1.58026e-06 3.81885e-06)
(0.00414218 1.47798e-06 3.74058e-06)
(0.00410731 1.46032e-06 3.7001e-06)
(0.00406854 1.38243e-06 3.669e-06)
(0.00403803 1.27502e-06 3.64491e-06)
(0.00400383 1.18506e-06 3.65256e-06)
(0.00397232 1.11278e-06 3.71907e-06)
(0.00394926 1.02056e-06 3.84177e-06)
(0.00392304 8.99828e-07 3.86794e-06)
(0.00390018 7.81037e-07 4.04403e-06)
(0.00388632 6.71858e-07 4.2224e-06)
(0.00386894 6.13102e-07 4.23862e-06)
(0.0038539 5.27611e-07 4.02699e-06)
(0.00384122 3.92139e-07 3.71379e-06)
(0.00383129 3.15874e-07 3.65002e-06)
(0.00383069 2.3124e-07 3.73896e-06)
(0.00382752 6.14469e-08 3.87206e-06)
(0.00382768 -9.92255e-08 3.99499e-06)
(0.00383152 -1.62904e-07 4.11305e-06)
(0.00383873 -2.72295e-07 4.25786e-06)
(0.00384878 -4.64748e-07 4.31723e-06)
(0.00386178 -5.23011e-07 4.39856e-06)
(0.00387767 -5.42014e-07 4.53079e-06)
(0.00389678 -7.53435e-07 4.67259e-06)
(0.00391877 -9.19793e-07 4.67828e-06)
(0.00394408 -9.35448e-07 4.58276e-06)
(0.00397251 -1.02661e-06 4.47864e-06)
(0.00400371 -1.23554e-06 4.32756e-06)
(0.00403747 -1.27888e-06 4.14471e-06)
(0.00406721 -1.254e-06 3.93264e-06)
(0.00410612 -1.45983e-06 3.66817e-06)
(0.00414757 -1.62549e-06 3.57603e-06)
(0.0041913 -1.58584e-06 3.67932e-06)
(0.00423705 -1.62288e-06 3.88272e-06)
(0.00428478 -1.81916e-06 4.00746e-06)
(0.00432745 -1.83279e-06 4.03919e-06)
(0.00437825 -1.76166e-06 4.13839e-06)
(0.00443043 -1.89915e-06 4.35363e-06)
(0.00447714 -2.04616e-06 4.62705e-06)
(0.00453189 -1.96132e-06 4.84859e-06)
(0.00458744 -1.93081e-06 5.0508e-06)
(0.00463629 -2.06184e-06 5.19309e-06)
(0.0046925 -2.05629e-06 5.26929e-06)
(0.00474161 -1.93307e-06 5.35054e-06)
(0.00479799 -2.00053e-06 5.43812e-06)
(0.00484662 -2.08458e-06 5.49501e-06)
(0.00490215 -1.95256e-06 5.56689e-06)
(0.00494951 -1.86249e-06 5.70268e-06)
(0.00499582 -1.92439e-06 5.85175e-06)
(0.00504851 -1.88087e-06 6.01772e-06)
(0.00509227 -1.73251e-06 6.15094e-06)
(0.00513456 -1.71616e-06 6.21574e-06)
(0.005183 -1.73932e-06 6.27179e-06)
(0.00522167 -1.58745e-06 6.32173e-06)
(0.0052581 -1.46114e-06 6.34759e-06)
(0.00529152 -1.43927e-06 6.37555e-06)
(0.0053222 -1.34795e-06 6.46399e-06)
(0.00535002 -1.20655e-06 6.55958e-06)
(0.00538356 -1.12527e-06 6.64931e-06)
(0.00540548 -1.04293e-06 6.69056e-06)
(0.00542422 -9.14618e-07 6.74623e-06)
(0.00543948 -7.92411e-07 6.75649e-06)
(0.00545094 -6.56037e-07 6.77829e-06)
(0.00545848 -5.08477e-07 6.86497e-06)
(0.00546198 -3.98238e-07 6.92029e-06)
(0.00546142 -2.53531e-07 6.9191e-06)
(0.00545662 -5.06329e-08 6.86866e-06)
(0.00545644 6.19329e-08 6.81913e-06)
(0.00544313 1.3799e-07 6.78446e-06)
(0.00542538 3.75117e-07 6.73551e-06)
(0.005412 5.82949e-07 6.6569e-06)
(0.0053942 6.2827e-07 6.52607e-06)
(0.00877357 3.1332e-06 1.07268e-05)
(0.00874577 3.49991e-06 1.05247e-05)
(0.00870326 4.06725e-06 1.03729e-05)
(0.00866982 4.53739e-06 1.02729e-05)
(0.00862406 4.89406e-06 1.01268e-05)
(0.00857135 5.34794e-06 9.97396e-06)
(0.00852279 5.68942e-06 9.86308e-06)
(0.00847149 6.01521e-06 9.74086e-06)
(0.00841503 6.35389e-06 9.51272e-06)
(0.00836271 6.52341e-06 9.28888e-06)
(0.00830172 6.8415e-06 9.08946e-06)
(0.00823687 7.1035e-06 8.87535e-06)
(0.00817891 7.17321e-06 8.61902e-06)
(0.00811278 7.36993e-06 8.28388e-06)
(0.00804324 7.4077e-06 7.94794e-06)
(0.00798257 7.37154e-06 7.65382e-06)
(0.00791566 7.37435e-06 7.39699e-06)
(0.0078484 7.36057e-06 7.2083e-06)
(0.00778068 7.28948e-06 7.00163e-06)
(0.00771625 7.07992e-06 6.82441e-06)
(0.0076525 6.91159e-06 6.75588e-06)
(0.00758454 6.82855e-06 6.73096e-06)
(0.00752552 6.65266e-06 6.83509e-06)
(0.00746893 6.47465e-06 7.03767e-06)
(0.00740781 6.30281e-06 7.186e-06)
(0.00734856 6.082e-06 7.23606e-06)
(0.0072977 5.88887e-06 7.14619e-06)
(0.00724383 5.72578e-06 6.95369e-06)
(0.00719195 5.46245e-06 6.86778e-06)
(0.00713697 5.17916e-06 6.80012e-06)
(0.00709237 4.89279e-06 6.71004e-06)
(0.00705114 4.627e-06 6.66463e-06)
(0.00700676 4.25853e-06 6.64846e-06)
(0.0069728 3.9334e-06 6.74346e-06)
(0.00693718 3.59344e-06 6.91393e-06)
(0.00690562 3.15167e-06 7.02103e-06)
(0.00687957 2.76023e-06 7.23881e-06)
(0.00685756 2.374e-06 7.46889e-06)
(0.0068401 2.05485e-06 7.49527e-06)
(0.00682648 1.74602e-06 7.20439e-06)
(0.00681672 1.40535e-06 6.76907e-06)
(0.00681145 9.9921e-07 6.59886e-06)
(0.0068053 5.03114e-07 6.69776e-06)
(0.0068105 1.15563e-07 6.87103e-06)
(0.00681517 -3.54718e-07 7.1087e-06)
(0.00683114 -8.75402e-07 7.31406e-06)
(0.00684637 -1.28053e-06 7.62455e-06)
(0.00686662 -1.66471e-06 7.82398e-06)
(0.00689178 -2.06038e-06 7.94184e-06)
(0.00692131 -2.50792e-06 8.11661e-06)
(0.00695606 -2.92468e-06 8.3241e-06)
(0.00699492 -3.29335e-06 8.41046e-06)
(0.00703855 -3.78193e-06 8.32628e-06)
(0.00708135 -4.12944e-06 8.1245e-06)
(0.00713427 -4.42425e-06 7.8448e-06)
(0.00719263 -4.78565e-06 7.46833e-06)
(0.00724688 -5.19469e-06 7.11518e-06)
(0.00731254 -5.54997e-06 6.75185e-06)
(0.007375 -5.78369e-06 6.54642e-06)
(0.00743979 -6.15465e-06 6.65295e-06)
(0.00750887 -6.35297e-06 6.94787e-06)
(0.00757958 -6.50073e-06 7.16656e-06)
(0.0076547 -6.72567e-06 7.27971e-06)
(0.00772959 -7.00539e-06 7.42525e-06)
(0.0078072 -7.08773e-06 7.73497e-06)
(0.00788746 -7.23946e-06 8.16495e-06)
(0.00796021 -7.43569e-06 8.49935e-06)
(0.00804209 -7.4367e-06 8.8054e-06)
(0.00811585 -7.37387e-06 9.07186e-06)
(0.00819166 -7.3833e-06 9.24984e-06)
(0.00826423 -7.47813e-06 9.41025e-06)
(0.00833855 -7.41569e-06 9.56145e-06)
(0.00841014 -7.26041e-06 9.66831e-06)
(0.00848006 -7.22885e-06 9.77062e-06)
(0.00855034 -7.09088e-06 9.96334e-06)
(0.0086094 -6.87592e-06 1.02011e-05)
(0.00867434 -6.61972e-06 1.04957e-05)
(0.00872727 -6.50884e-06 1.07033e-05)
(0.00877873 -6.21791e-06 1.08167e-05)
(0.00883519 -5.9735e-06 1.08862e-05)
(0.00888028 -5.66271e-06 1.095e-05)
(0.00892086 -5.37775e-06 1.09842e-05)
(0.00894924 -5.00588e-06 1.1025e-05)
(0.00898056 -4.63677e-06 1.11427e-05)
(0.00900792 -4.23821e-06 1.12803e-05)
(0.00903028 -3.85879e-06 1.13881e-05)
(0.00903905 -3.44938e-06 1.14299e-05)
(0.00905087 -3.0331e-06 1.14921e-05)
(0.00904947 -2.55007e-06 1.15164e-05)
(0.00905006 -2.06322e-06 1.15521e-05)
(0.00903646 -1.57336e-06 1.16308e-05)
(0.00902477 -1.06792e-06 1.16749e-05)
(0.00900688 -5.84196e-07 1.16469e-05)
(0.00898248 -3.74261e-08 1.15566e-05)
(0.00895199 4.8766e-07 1.14498e-05)
(0.00891467 9.91808e-07 1.13757e-05)
(0.00887889 1.5587e-06 1.12981e-05)
(0.00884537 2.05653e-06 1.11539e-05)
(0.00880458 2.53027e-06 1.09347e-05)
(0.0119955 6.29204e-06 1.50177e-05)
(0.0119509 7.15507e-06 1.47808e-05)
(0.0119061 8.15079e-06 1.45977e-05)
(0.0118613 9.06034e-06 1.44724e-05)
(0.0118083 9.84835e-06 1.43202e-05)
(0.0117507 1.06541e-05 1.41114e-05)
(0.0116941 1.12869e-05 1.39537e-05)
(0.0116313 1.1925e-05 1.38262e-05)
(0.0115722 1.25243e-05 1.36224e-05)
(0.0115075 1.30833e-05 1.33817e-05)
(0.0114415 1.3484e-05 1.30894e-05)
(0.011373 1.39202e-05 1.27683e-05)
(0.0113012 1.41486e-05 1.24361e-05)
(0.0112285 1.44168e-05 1.20687e-05)
(0.011157 1.4488e-05 1.17667e-05)
(0.011084 1.44416e-05 1.14969e-05)
(0.0110124 1.45127e-05 1.13003e-05)
(0.010942 1.44357e-05 1.11741e-05)
(0.0108665 1.421e-05 1.09471e-05)
(0.0107941 1.40242e-05 1.06885e-05)
(0.0107242 1.36862e-05 1.05789e-05)
(0.0106557 1.33974e-05 1.04537e-05)
(0.010591 1.30816e-05 1.04541e-05)
(0.0105237 1.27755e-05 1.05965e-05)
(0.0104655 1.23814e-05 1.0734e-05)
(0.0104045 1.19845e-05 1.08117e-05)
(0.0103422 1.16281e-05 1.07663e-05)
(0.0102882 1.12074e-05 1.06418e-05)
(0.0102332 1.0686e-05 1.05807e-05)
(0.0101823 1.01335e-05 1.05571e-05)
(0.0101359 9.55856e-06 1.04441e-05)
(0.0100889 8.96904e-06 1.03673e-05)
(0.0100523 8.31011e-06 1.03346e-05)
(0.0100154 7.58234e-06 1.0465e-05)
(0.00997928 6.85626e-06 1.06878e-05)
(0.00995419 6.01829e-06 1.08669e-05)
(0.00992986 5.17347e-06 1.10408e-05)
(0.00991701 4.40834e-06 1.12289e-05)
(0.00990437 3.75311e-06 1.12317e-05)
(0.00989734 3.04318e-06 1.09324e-05)
(0.00989049 2.31332e-06 1.04647e-05)
(0.009895 1.51059e-06 1.02299e-05)
(0.0099008 5.34776e-07 1.03334e-05)
(0.00991362 -3.87211e-07 1.05312e-05)
(0.00993272 -1.32849e-06 1.08673e-05)
(0.00995855 -2.26528e-06 1.11589e-05)
(0.00998662 -3.17077e-06 1.15983e-05)
(0.0100255 -4.0337e-06 1.19387e-05)
(0.0100658 -4.85048e-06 1.21419e-05)
(0.0101127 -5.69202e-06 1.23669e-05)
(0.0101649 -6.56153e-06 1.26108e-05)
(0.010224 -7.39126e-06 1.27218e-05)
(0.0102825 -8.22759e-06 1.26676e-05)
(0.0103529 -9.00436e-06 1.241e-05)
(0.0104226 -9.76916e-06 1.19623e-05)
(0.0104971 -1.04159e-05 1.14732e-05)
(0.0105773 -1.10894e-05 1.10412e-05)
(0.0106612 -1.18164e-05 1.06489e-05)
(0.0107444 -1.24044e-05 1.03496e-05)
(0.0108315 -1.29517e-05 1.03525e-05)
(0.0109277 -1.33815e-05 1.06122e-05)
(0.0110141 -1.38213e-05 1.08671e-05)
(0.011109 -1.41879e-05 1.10855e-05)
(0.0112075 -1.45584e-05 1.1318e-05)
(0.0113019 -1.48108e-05 1.16274e-05)
(0.0113963 -1.50843e-05 1.20165e-05)
(0.0114926 -1.52548e-05 1.23467e-05)
(0.0115887 -1.52386e-05 1.26739e-05)
(0.0116777 -1.52211e-05 1.30442e-05)
(0.011773 -1.52277e-05 1.3358e-05)
(0.0118593 -1.50726e-05 1.36135e-05)
(0.0119393 -1.4864e-05 1.38343e-05)
(0.0120225 -1.46719e-05 1.40303e-05)
(0.0120976 -1.43973e-05 1.42076e-05)
(0.0121687 -1.40304e-05 1.44471e-05)
(0.012237 -1.36511e-05 1.47666e-05)
(0.0122952 -1.31278e-05 1.51129e-05)
(0.0123565 -1.26822e-05 1.53692e-05)
(0.0124062 -1.21951e-05 1.55239e-05)
(0.0124521 -1.15738e-05 1.56252e-05)
(0.0124854 -1.09001e-05 1.56844e-05)
(0.0125209 -1.0197e-05 1.57295e-05)
(0.0125431 -9.47998e-06 1.5792e-05)
(0.0125593 -8.66456e-06 1.59206e-05)
(0.0125693 -7.86148e-06 1.60653e-05)
(0.0125726 -7.07099e-06 1.61731e-05)
(0.0125694 -6.22194e-06 1.62283e-05)
(0.0125595 -5.35964e-06 1.62747e-05)
(0.0125422 -4.42609e-06 1.63038e-05)
(0.0125108 -3.47779e-06 1.63155e-05)
(0.0124785 -2.51073e-06 1.63529e-05)
(0.0124381 -1.49678e-06 1.6346e-05)
(0.01239 -5.28626e-07 1.62603e-05)
(0.0123343 4.51107e-07 1.61173e-05)
(0.012277 1.47255e-06 1.59664e-05)
(0.0122126 2.4121e-06 1.58576e-05)
(0.0121537 3.39314e-06 1.57452e-05)
(0.0120925 4.37279e-06 1.55346e-05)
(0.0120447 5.29961e-06 1.52764e-05)
(0.0149454 1.05929e-05 1.91458e-05)
(0.0148882 1.21323e-05 1.89207e-05)
(0.0148341 1.35439e-05 1.87327e-05)
(0.0147765 1.49406e-05 1.85807e-05)
(0.0147121 1.62829e-05 1.84153e-05)
(0.014641 1.75348e-05 1.81592e-05)
(0.0145738 1.85295e-05 1.7947e-05)
(0.0145025 1.95078e-05 1.78131e-05)
(0.014436 2.05017e-05 1.76487e-05)
(0.0143624 2.13181e-05 1.74083e-05)
(0.0142892 2.19229e-05 1.70495e-05)
(0.0142148 2.25561e-05 1.66331e-05)
(0.0141396 2.30078e-05 1.62489e-05)
(0.0140641 2.33344e-05 1.59005e-05)
(0.0139881 2.34526e-05 1.56705e-05)
(0.0139133 2.3534e-05 1.55285e-05)
(0.013836 2.3493e-05 1.54773e-05)
(0.0137599 2.33349e-05 1.54589e-05)
(0.0136866 2.30462e-05 1.52935e-05)
(0.0136156 2.27169e-05 1.50412e-05)
(0.0135433 2.21753e-05 1.48253e-05)
(0.0134753 2.16796e-05 1.45888e-05)
(0.0134068 2.11136e-05 1.44799e-05)
(0.0133422 2.05253e-05 1.45411e-05)
(0.0132821 1.98769e-05 1.46253e-05)
(0.0132267 1.92703e-05 1.47485e-05)
(0.0131717 1.85756e-05 1.48198e-05)
(0.013117 1.78361e-05 1.47883e-05)
(0.0130676 1.69583e-05 1.47904e-05)
(0.0130236 1.60322e-05 1.48667e-05)
(0.0129853 1.50275e-05 1.48397e-05)
(0.0129483 1.40406e-05 1.48043e-05)
(0.0129129 1.29033e-05 1.48083e-05)
(0.0128841 1.16595e-05 1.49576e-05)
(0.0128628 1.04024e-05 1.5166e-05)
(0.0128481 9.06324e-06 1.53338e-05)
(0.0128357 7.70185e-06 1.54485e-05)
(0.0128311 6.36491e-06 1.55345e-05)
(0.0128285 5.17159e-06 1.55319e-05)
(0.0128333 3.9164e-06 1.53073e-05)
(0.0128448 2.6878e-06 1.49229e-05)
(0.0128594 1.27147e-06 1.4777e-05)
(0.0128856 -2.94438e-07 1.4941e-05)
(0.01291 -1.80342e-06 1.51577e-05)
(0.012948 -3.38336e-06 1.55311e-05)
(0.0129881 -4.96665e-06 1.58285e-05)
(0.0130355 -6.45306e-06 1.62611e-05)
(0.0130911 -7.88926e-06 1.66908e-05)
(0.0131499 -9.33222e-06 1.70518e-05)
(0.0132194 -1.07411e-05 1.73808e-05)
(0.0132867 -1.21187e-05 1.75775e-05)
(0.0133644 -1.3424e-05 1.761e-05)
(0.0134435 -1.48076e-05 1.75286e-05)
(0.0135295 -1.61188e-05 1.72167e-05)
(0.0136214 -1.73164e-05 1.66652e-05)
(0.0137136 -1.8454e-05 1.61997e-05)
(0.0138112 -1.95058e-05 1.58093e-05)
(0.0139135 -2.05831e-05 1.54678e-05)
(0.0140194 -2.14996e-05 1.51994e-05)
(0.0141233 -2.2363e-05 1.50954e-05)
(0.0142315 -2.30469e-05 1.51404e-05)
(0.0143368 -2.36595e-05 1.53118e-05)
(0.0144456 -2.42283e-05 1.55623e-05)
(0.0145548 -2.47719e-05 1.57908e-05)
(0.0146659 -2.5113e-05 1.5969e-05)
(0.014773 -2.53997e-05 1.60855e-05)
(0.014879 -2.55761e-05 1.62355e-05)
(0.0149796 -2.54911e-05 1.65023e-05)
(0.0150788 -2.53348e-05 1.68924e-05)
(0.0151765 -2.51716e-05 1.7301e-05)
(0.0152669 -2.48717e-05 1.76624e-05)
(0.0153548 -2.45111e-05 1.79835e-05)
(0.0154336 -2.39583e-05 1.8295e-05)
(0.0155088 -2.34054e-05 1.86172e-05)
(0.015575 -2.26822e-05 1.89637e-05)
(0.0156422 -2.19272e-05 1.93446e-05)
(0.0156936 -2.10171e-05 1.96672e-05)
(0.0157455 -2.01857e-05 1.9899e-05)
(0.0157867 -1.92459e-05 2.0089e-05)
(0.0158167 -1.81859e-05 2.02317e-05)
(0.0158459 -1.7005e-05 2.03149e-05)
(0.0158635 -1.58169e-05 2.03751e-05)
(0.0158738 -1.45348e-05 2.04739e-05)
(0.0158715 -1.31711e-05 2.0588e-05)
(0.0158674 -1.18302e-05 2.07096e-05)
(0.0158498 -1.04465e-05 2.08001e-05)
(0.015825 -9.08022e-06 2.08441e-05)
(0.0157916 -7.60532e-06 2.08563e-05)
(0.0157506 -6.11852e-06 2.08551e-05)
(0.0156953 -4.56427e-06 2.08256e-05)
(0.0156379 -3.04011e-06 2.07854e-05)
(0.0155703 -1.47019e-06 2.07117e-05)
(0.0154952 5.46458e-08 2.05689e-05)
(0.0154157 1.64043e-06 2.03907e-05)
(0.0153332 3.15449e-06 2.02159e-05)
(0.0152466 4.648e-06 2.00979e-05)
(0.0151566 6.19952e-06 1.99476e-05)
(0.0150796 7.7122e-06 1.97089e-05)
(0.0150085 9.14935e-06 1.94209e-05)
(0.0174393 1.65342e-05 2.28692e-05)
(0.0173759 1.85269e-05 2.26942e-05)
(0.0173195 2.05557e-05 2.25495e-05)
(0.0172652 2.25812e-05 2.23782e-05)
(0.0171989 2.4341e-05 2.2164e-05)
(0.0171339 2.59536e-05 2.19229e-05)
(0.0170539 2.7501e-05 2.16805e-05)
(0.0169766 2.88956e-05 2.1497e-05)
(0.0168958 3.01001e-05 2.1312e-05)
(0.0168158 3.12327e-05 2.10459e-05)
(0.0167339 3.22184e-05 2.0677e-05)
(0.016655 3.29629e-05 2.0236e-05)
(0.0165757 3.34689e-05 1.9791e-05)
(0.0164972 3.39126e-05 1.9461e-05)
(0.0164167 3.40872e-05 1.92807e-05)
(0.0163381 3.40457e-05 1.92791e-05)
(0.0162619 3.39005e-05 1.94385e-05)
(0.016185 3.36937e-05 1.95329e-05)
(0.0161154 3.324e-05 1.94469e-05)
(0.0160426 3.26587e-05 1.92652e-05)
(0.0159738 3.19376e-05 1.89489e-05)
(0.0159097 3.11281e-05 1.86191e-05)
(0.0158473 3.025e-05 1.84743e-05)
(0.0157905 2.93199e-05 1.85456e-05)
(0.0157355 2.82944e-05 1.8647e-05)
(0.0156863 2.72733e-05 1.88571e-05)
(0.0156364 2.61303e-05 1.90505e-05)
(0.0155967 2.4907e-05 1.91199e-05)
(0.0155557 2.36034e-05 1.92058e-05)
(0.0155213 2.22064e-05 1.94561e-05)
(0.0154941 2.06859e-05 1.96126e-05)
(0.0154693 1.91587e-05 1.97163e-05)
(0.0154486 1.74457e-05 1.98571e-05)
(0.0154357 1.55404e-05 2.00377e-05)
(0.0154268 1.36599e-05 2.01244e-05)
(0.0154263 1.1652e-05 2.01578e-05)
(0.015429 9.63549e-06 2.01663e-05)
(0.0154401 7.6611e-06 2.02224e-05)
(0.0154549 5.79228e-06 2.03131e-05)
(0.0154787 3.85409e-06 2.02427e-05)
(0.0155069 1.90072e-06 2.00696e-05)
(0.0155393 -2.33959e-07 2.01902e-05)
(0.0155831 -2.47068e-06 2.04883e-05)
(0.0156275 -4.76166e-06 2.07101e-05)
(0.0156837 -7.02976e-06 2.09398e-05)
(0.0157439 -9.27252e-06 2.11174e-05)
(0.0158088 -1.15399e-05 2.13749e-05)
(0.0158814 -1.37172e-05 2.18095e-05)
(0.0159615 -1.57677e-05 2.23429e-05)
(0.0160448 -1.78005e-05 2.2736e-05)
(0.0161349 -1.97754e-05 2.28593e-05)
(0.0162271 -2.17113e-05 2.27916e-05)
(0.0163249 -2.35745e-05 2.26013e-05)
(0.0164297 -2.55332e-05 2.21953e-05)
(0.016536 -2.72548e-05 2.16776e-05)
(0.0166431 -2.88231e-05 2.13492e-05)
(0.0167544 -3.02616e-05 2.10773e-05)
(0.0168706 -3.16848e-05 2.08879e-05)
(0.0169856 -3.29717e-05 2.08035e-05)
(0.0171036 -3.40197e-05 2.06992e-05)
(0.0172204 -3.50081e-05 2.0525e-05)
(0.0173392 -3.58362e-05 2.04835e-05)
(0.0174554 -3.65844e-05 2.05259e-05)
(0.0175723 -3.71357e-05 2.05203e-05)
(0.01769 -3.75254e-05 2.03615e-05)
(0.0177981 -3.77349e-05 2.01188e-05)
(0.0179052 -3.77329e-05 1.99832e-05)
(0.0180106 -3.75119e-05 2.01662e-05)
(0.0181093 -3.72096e-05 2.05005e-05)
(0.0182059 -3.67562e-05 2.09448e-05)
(0.0182904 -3.61485e-05 2.1377e-05)
(0.0183759 -3.54665e-05 2.1801e-05)
(0.0184484 -3.45147e-05 2.22553e-05)
(0.0185164 -3.34941e-05 2.27721e-05)
(0.0185797 -3.2341e-05 2.32575e-05)
(0.0186335 -3.11188e-05 2.3679e-05)
(0.0186775 -2.97325e-05 2.39599e-05)
(0.0187155 -2.83482e-05 2.41337e-05)
(0.0187434 -2.68672e-05 2.43167e-05)
(0.0187642 -2.51924e-05 2.44933e-05)
(0.0187742 -2.34559e-05 2.45905e-05)
(0.0187771 -2.16356e-05 2.46992e-05)
(0.0187681 -1.96708e-05 2.48222e-05)
(0.0187515 -1.7661e-05 2.49017e-05)
(0.0187262 -1.56219e-05 2.49375e-05)
(0.0186929 -1.35701e-05 2.49793e-05)
(0.0186473 -1.15227e-05 2.49759e-05)
(0.018593 -9.41944e-06 2.49285e-05)
(0.0185297 -7.23669e-06 2.48441e-05)
(0.0184576 -5.02906e-06 2.4743e-05)
(0.0183768 -2.8072e-06 2.46072e-05)
(0.0182865 -5.77354e-07 2.44694e-05)
(0.0181913 1.61507e-06 2.42879e-05)
(0.0180818 3.79642e-06 2.40833e-05)
(0.0179569 6.00059e-06 2.38911e-05)
(0.017828 8.17884e-06 2.37648e-05)
(0.0177113 1.02981e-05 2.3619e-05)
(0.017607 1.23904e-05 2.33883e-05)
(0.0175093 1.44793e-05 2.31066e-05)
(0.0194636 2.38842e-05 2.60109e-05)
(0.0193856 2.65275e-05 2.58945e-05)
(0.0193183 2.91556e-05 2.5775e-05)
(0.0192522 3.16203e-05 2.55264e-05)
(0.0191757 3.39167e-05 2.52039e-05)
(0.0191053 3.6069e-05 2.49219e-05)
(0.0190335 3.79548e-05 2.47181e-05)
(0.0189648 3.96413e-05 2.45093e-05)
(0.0189005 4.12496e-05 2.42741e-05)
(0.0188339 4.26265e-05 2.39574e-05)
(0.0187553 4.37125e-05 2.35966e-05)
(0.0186708 4.46025e-05 2.31677e-05)
(0.0185873 4.52857e-05 2.27148e-05)
(0.0185058 4.56121e-05 2.23825e-05)
(0.0184269 4.57093e-05 2.22524e-05)
(0.0183484 4.56194e-05 2.23433e-05)
(0.0182732 4.53883e-05 2.26216e-05)
(0.0181996 4.48797e-05 2.27808e-05)
(0.0181305 4.41737e-05 2.27291e-05)
(0.0180665 4.33645e-05 2.26533e-05)
(0.0180046 4.23736e-05 2.23371e-05)
(0.0179457 4.11055e-05 2.20755e-05)
(0.0178899 3.97642e-05 2.20318e-05)
(0.0178409 3.84353e-05 2.22142e-05)
(0.0177957 3.69387e-05 2.24433e-05)
(0.0177549 3.53402e-05 2.27865e-05)
(0.0177181 3.36582e-05 2.30604e-05)
(0.0176896 3.18233e-05 2.32217e-05)
(0.0176621 2.99743e-05 2.346e-05)
(0.0176427 2.79432e-05 2.38965e-05)
(0.0176274 2.58512e-05 2.42753e-05)
(0.01762 2.36673e-05 2.45498e-05)
(0.0176159 2.11959e-05 2.48165e-05)
(0.0176189 1.85956e-05 2.50267e-05)
(0.0176283 1.59182e-05 2.50175e-05)
(0.0176425 1.32034e-05 2.49191e-05)
(0.0176621 1.04475e-05 2.48297e-05)
(0.0176895 7.73375e-06 2.49325e-05)
(0.017723 5.00246e-06 2.51757e-05)
(0.0177655 2.25891e-06 2.52776e-05)
(0.0178099 -4.61441e-07 2.53924e-05)
(0.0178636 -3.37543e-06 2.58228e-05)
(0.0179248 -6.40832e-06 2.62902e-05)
(0.0179907 -9.46659e-06 2.64994e-05)
(0.0180621 -1.25467e-05 2.64148e-05)
(0.0181417 -1.56175e-05 2.63722e-05)
(0.0182259 -1.86566e-05 2.63673e-05)
(0.0183142 -2.15351e-05 2.66815e-05)
(0.0184095 -2.42843e-05 2.72053e-05)
(0.0185079 -2.69804e-05 2.75047e-05)
(0.0186126 -2.9542e-05 2.76155e-05)
(0.0187206 -3.20546e-05 2.75613e-05)
(0.018834 -3.45989e-05 2.72592e-05)
(0.0189461 -3.70465e-05 2.67889e-05)
(0.0190658 -3.91906e-05 2.64315e-05)
(0.0191839 -4.1192e-05 2.61937e-05)
(0.0193091 -4.31268e-05 2.6029e-05)
(0.0194308 -4.48293e-05 2.60272e-05)
(0.0195555 -4.63736e-05 2.62321e-05)
(0.0196785 -4.76924e-05 2.62293e-05)
(0.0198033 -4.87809e-05 2.60126e-05)
(0.0199219 -4.9665e-05 2.56775e-05)
(0.0200448 -5.04957e-05 2.52686e-05)
(0.0201607 -5.10607e-05 2.4788e-05)
(0.0202756 -5.13178e-05 2.42686e-05)
(0.0203852 -5.13184e-05 2.37389e-05)
(0.020489 -5.11144e-05 2.34516e-05)
(0.0205866 -5.05963e-05 2.35443e-05)
(0.0206811 -4.99405e-05 2.38445e-05)
(0.0207688 -4.9081e-05 2.42747e-05)
(0.0208492 -4.81302e-05 2.4762e-05)
(0.0209214 -4.69198e-05 2.52763e-05)
(0.0209891 -4.55003e-05 2.58414e-05)
(0.0210449 -4.39687e-05 2.64619e-05)
(0.0210948 -4.22511e-05 2.70591e-05)
(0.021136 -4.03975e-05 2.75128e-05)
(0.0211679 -3.84795e-05 2.77978e-05)
(0.0211931 -3.63935e-05 2.79612e-05)
(0.0212085 -3.42113e-05 2.81248e-05)
(0.0212129 -3.18857e-05 2.82644e-05)
(0.0212074 -2.94574e-05 2.83759e-05)
(0.0211939 -2.68803e-05 2.85025e-05)
(0.0211697 -2.42126e-05 2.86135e-05)
(0.0211375 -2.14387e-05 2.86265e-05)
(0.0210971 -1.86584e-05 2.85852e-05)
(0.0210448 -1.58848e-05 2.85196e-05)
(0.0209836 -1.3076e-05 2.84081e-05)
(0.0209131 -1.01997e-05 2.82499e-05)
(0.0208341 -7.30985e-06 2.80412e-05)
(0.0207318 -4.3469e-06 2.77997e-05)
(0.0206062 -1.3415e-06 2.75239e-05)
(0.020476 1.6279e-06 2.72743e-05)
(0.0203409 4.56776e-06 2.70459e-05)
(0.0202008 7.47555e-06 2.68459e-05)
(0.0200602 1.02945e-05 2.67046e-05)
(0.0199144 1.30873e-05 2.66244e-05)
(0.0197796 1.58553e-05 2.65306e-05)
(0.0196569 1.85508e-05 2.6375e-05)
(0.0195492 2.11737e-05 2.61754e-05)
(0.0211587 3.24641e-05 2.85373e-05)
(0.0210703 3.56619e-05 2.84836e-05)
(0.0209894 3.88286e-05 2.83527e-05)
(0.0209105 4.18496e-05 2.80263e-05)
(0.0208264 4.45697e-05 2.76074e-05)
(0.0207459 4.71389e-05 2.72493e-05)
(0.0206673 4.94737e-05 2.69783e-05)
(0.0205941 5.161e-05 2.6705e-05)
(0.0205214 5.34175e-05 2.63316e-05)
(0.0204506 5.49723e-05 2.58811e-05)
(0.0203799 5.62528e-05 2.54586e-05)
(0.0203095 5.72186e-05 2.50348e-05)
(0.0202252 5.78085e-05 2.46362e-05)
(0.0201438 5.80964e-05 2.43821e-05)
(0.0200663 5.8104e-05 2.43307e-05)
(0.0199906 5.77934e-05 2.44583e-05)
(0.0199173 5.72518e-05 2.46846e-05)
(0.0198516 5.65362e-05 2.48064e-05)
(0.0197867 5.54772e-05 2.48255e-05)
(0.0197278 5.42568e-05 2.48563e-05)
(0.0196727 5.28624e-05 2.47684e-05)
(0.0196216 5.11671e-05 2.47594e-05)
(0.0195753 4.9336e-05 2.50005e-05)
(0.0195348 4.73686e-05 2.5351e-05)
(0.0194991 4.52824e-05 2.57315e-05)
(0.0194716 4.31013e-05 2.62011e-05)
(0.0194479 4.07088e-05 2.65735e-05)
(0.0194299 3.82151e-05 2.69104e-05)
(0.0194183 3.56222e-05 2.73696e-05)
(0.0194123 3.29172e-05 2.78284e-05)
(0.019413 3.0056e-05 2.83191e-05)
(0.0194195 2.70674e-05 2.86291e-05)
(0.0194325 2.38335e-05 2.89226e-05)
(0.0194521 2.04073e-05 2.9059e-05)
(0.0194778 1.69105e-05 2.90514e-05)
(0.0195097 1.33872e-05 2.89841e-05)
(0.0195473 9.83795e-06 2.89904e-05)
(0.0195913 6.25063e-06 2.91822e-05)
(0.0196415 2.63632e-06 2.94255e-05)
(0.0196981 -9.85216e-07 2.957e-05)
(0.0197638 -4.65469e-06 3.00403e-05)
(0.0198352 -8.36028e-06 3.06983e-05)
(0.0199092 -1.21475e-05 3.12593e-05)
(0.0199907 -1.61036e-05 3.14497e-05)
(0.0200783 -2.00273e-05 3.12229e-05)
(0.0201693 -2.38741e-05 3.09392e-05)
(0.0202676 -2.76718e-05 3.06972e-05)
(0.0203702 -3.13106e-05 3.07638e-05)
(0.0204768 -3.47125e-05 3.09492e-05)
(0.0205872 -3.80047e-05 3.10526e-05)
(0.0207033 -4.12331e-05 3.12081e-05)
(0.0208204 -4.43324e-05 3.11632e-05)
(0.0209425 -4.73575e-05 3.08456e-05)
(0.0210688 -5.0248e-05 3.04892e-05)
(0.0211942 -5.28799e-05 3.03123e-05)
(0.0213234 -5.52639e-05 3.01164e-05)
(0.0214515 -5.7466e-05 2.99924e-05)
(0.0215788 -5.94832e-05 3.01335e-05)
(0.0217048 -6.11943e-05 3.04404e-05)
(0.0218318 -6.25781e-05 3.05077e-05)
(0.0219537 -6.37016e-05 3.02669e-05)
(0.0220755 -6.46607e-05 2.96645e-05)
(0.0221939 -6.53737e-05 2.87972e-05)
(0.0223055 -6.57341e-05 2.79368e-05)
(0.0224149 -6.58026e-05 2.72243e-05)
(0.0225185 -6.55018e-05 2.66957e-05)
(0.0226163 -6.48599e-05 2.64876e-05)
(0.0227078 -6.39662e-05 2.6596e-05)
(0.022793 -6.29324e-05 2.69282e-05)
(0.0228708 -6.15926e-05 2.73587e-05)
(0.0229412 -6.00569e-05 2.78758e-05)
(0.0230041 -5.83138e-05 2.84295e-05)
(0.0230587 -5.62973e-05 2.90133e-05)
(0.0231051 -5.41098e-05 2.96294e-05)
(0.0231405 -5.17182e-05 3.02082e-05)
(0.0231703 -4.92489e-05 3.06483e-05)
(0.0231902 -4.65884e-05 3.09642e-05)
(0.023199 -4.37981e-05 3.11793e-05)
(0.0232 -4.08084e-05 3.13606e-05)
(0.0231923 -3.7777e-05 3.14513e-05)
(0.0231735 -3.45715e-05 3.1523e-05)
(0.023146 -3.12803e-05 3.15846e-05)
(0.0231096 -2.77781e-05 3.15958e-05)
(0.023063 -2.42283e-05 3.15417e-05)
(0.023008 -2.06406e-05 3.14738e-05)
(0.0229441 -1.70136e-05 3.13185e-05)
(0.0228693 -1.34032e-05 3.10969e-05)
(0.0227829 -9.7538e-06 3.08221e-05)
(0.0226709 -6.03571e-06 3.04786e-05)
(0.0225424 -2.28433e-06 3.0102e-05)
(0.0224056 1.44323e-06 2.97235e-05)
(0.0222633 5.14036e-06 2.93847e-05)
(0.0221152 8.79021e-06 2.91278e-05)
(0.0219654 1.23257e-05 2.89407e-05)
(0.0218131 1.58209e-05 2.8847e-05)
(0.0216579 1.92445e-05 2.8808e-05)
(0.0215101 2.25454e-05 2.87472e-05)
(0.0213773 2.58921e-05 2.86982e-05)
(0.0212573 2.91583e-05 2.86253e-05)
(0.0225552 4.20455e-05 3.02988e-05)
(0.0224553 4.58253e-05 3.02874e-05)
(0.0223622 4.95346e-05 3.01195e-05)
(0.0222771 5.30012e-05 2.97571e-05)