/*--------------------------------*- C++ -*----------------------------------*\
| =========                 |                                                 |
| \\      /  F ield         | OpenFOAM: The Open Source CFD Toolbox           |
|  \\    /   O peration     | Version:  2306                                  |
|   \\  /    A nd           | Website:  www.openfoam.com                      |
|    \\/     M anipulation  |                                                 |
\*---------------------------------------------------------------------------*/
// * * * * * * * * * * * * * * * * * * * * * * * * * * * * * * * * * * * * * //
FoamFile
{
    version         2;
    format          ascii;
    class           volVectorField;
    location        "2.47";
    object          U;
}

dimensions      [ 0 1 -1 0 0 0 0 ];

internalField   nonuniform List<vector> 
14751
(
(0.00533334 8.17453e-07 2.27035e-27)
(0.00530344 9.55902e-07 -2.27371e-27)
(0.00527583 8.89229e-07 -2.29352e-26)
(0.00524684 1.37183e-06 -3.3036e-26)
(0.00520817 1.4582e-06 0)
(0.00517183 1.59743e-06 2.34209e-26)
(0.00513131 1.77944e-06 0)
(0.00508977 1.85023e-06 2.05233e-25)
(0.00504744 1.99091e-06 2.4956e-25)
(0.00500371 2.04287e-06 -3.14798e-25)
(0.00495978 2.13148e-06 -3.35431e-25)
(0.00491543 2.12896e-06 3.31162e-25)
(0.00487187 2.17798e-06 -3.33841e-25)
(0.00482814 2.15683e-06 3.83013e-25)
(0.00478537 2.1764e-06 1.19897e-25)
(0.00474288 2.13183e-06 -2.51448e-25)
(0.0047021 2.11026e-06 0)
(0.00466213 2.06245e-06 -1.35881e-25)
(0.00462384 2.01516e-06 1.40143e-25)
(0.00458691 1.95452e-06 0)
(0.00455174 1.88782e-06 0)
(0.00451835 1.81685e-06 6.03941e-25)
(0.00448676 1.74179e-06 -6.02156e-25)
(0.0044571 1.65933e-06 0)
(0.00442937 1.57795e-06 0)
(0.00440357 1.49006e-06 -3.11474e-25)
(0.00437975 1.40367e-06 3.10531e-25)
(0.00435787 1.31036e-06 0)
(0.004338 1.22148e-06 -2.42099e-27)
(0.00432001 1.129e-06 3.02447e-25)
(0.00430396 1.03787e-06 -6.10758e-25)
(0.00428977 9.45052e-07 3.03533e-25)
(0.00427747 8.54348e-07 -2.33157e-27)
(0.00426698 7.63025e-07 -4.59321e-27)
(0.00425829 6.73499e-07 1.43236e-25)
(0.00425134 5.82608e-07 -1.42909e-25)
(0.0042461 4.94309e-07 0)
(0.00424248 4.06371e-07 1.33676e-25)
(0.00424049 3.18774e-07 -1.33429e-25)
(0.00424009 2.34548e-07 6.30799e-26)
(0.00424127 1.498e-07 -6.29809e-26)
(0.00424402 6.85656e-08 5.89154e-26)
(0.0042483 -1.30995e-08 -5.8839e-26)
(0.00425407 -9.19691e-08 2.54577e-26)
(0.00426123 -1.7255e-07 -5.31648e-26)
(0.00426971 -2.50453e-07 1.35944e-26)
(0.00427946 -3.29742e-07 1.08673e-26)
(0.00429048 -4.04175e-07 0)
(0.0043028 -4.79906e-07 -6.52084e-28)
(0.00431655 -5.50985e-07 -5.67035e-28)
(0.00433175 -6.21766e-07 5.74728e-27)
(0.00434838 -6.91232e-07 -4.52844e-27)
(0.0043663 -7.61999e-07 -1.52558e-26)
(0.00438527 -8.32928e-07 1.5261e-26)
(0.0044051 -9.05563e-07 0)
(0.00442571 -9.73442e-07 2.16485e-26)
(0.00444729 -1.03978e-06 -4.03092e-26)
(0.00447026 -1.09749e-06 1.91942e-26)
(0.00449489 -1.15315e-06 4.40582e-28)
(0.00452117 -1.2082e-06 1.90006e-26)
(0.00454859 -1.26952e-06 -3.19064e-26)
(0.00457654 -1.33368e-06 1.2903e-26)
(0.00460462 -1.39706e-06 0)
(0.00463304 -1.45002e-06 -5.34591e-27)
(0.00466238 -1.49264e-06 -5.94993e-27)
(0.00469324 -1.52784e-06 4.53527e-26)
(0.00472561 -1.56284e-06 -3.40285e-26)
(0.00475907 -1.60503e-06 -5.70444e-26)
(0.0047929 -1.64503e-06 5.91062e-26)
(0.00482669 -1.68456e-06 0)
(0.00486047 -1.71253e-06 0)
(0.00489456 -1.73557e-06 0)
(0.00492914 -1.74589e-06 -1.61561e-27)
(0.00496416 -1.75855e-06 -1.75611e-27)
(0.00499939 -1.7635e-06 0)
(0.00503459 -1.77274e-06 4.01531e-27)
(0.0050695 -1.76458e-06 2.76967e-25)
(0.00510388 -1.75772e-06 -2.77585e-25)
(0.00513766 -1.73631e-06 2.98381e-25)
(0.00517061 -1.71489e-06 -2.9904e-25)
(0.00520272 -1.68056e-06 -4.84495e-27)
(0.00523355 -1.63915e-06 -4.92212e-27)
(0.00526316 -1.59977e-06 0)
(0.00529145 -1.54051e-06 0)
(0.00531751 -1.46546e-06 0)
(0.00534209 -1.40324e-06 -3.0819e-25)
(0.00536359 -1.27574e-06 6.0871e-25)
(0.00538312 -1.2346e-06 -1.14547e-26)
(0.00539972 -1.0404e-06 -2.88352e-25)
(0.0054123 -9.71165e-07 0)
(0.00542264 -7.79161e-07 7.83175e-27)
(0.00542778 -6.41446e-07 -5.77565e-26)
(0.00543057 -4.87584e-07 -5.22327e-26)
(0.0054285 -2.74023e-07 4.87168e-26)
(0.00542312 -9.87949e-08 -4.21812e-26)
(0.00541047 2.02818e-07 6.42863e-26)
(0.00539544 1.52733e-07 -1.25854e-26)
(0.00537893 4.78116e-07 0)
(0.00535686 5.21962e-07 0)
(0.00769673 2.48361e-06 0)
(0.00765823 2.68668e-06 -4.40226e-25)
(0.00762193 2.49657e-06 3.74623e-26)
(0.00758181 3.29003e-06 3.89424e-26)
(0.00752722 3.47916e-06 -3.31909e-24)
(0.007475 3.63876e-06 -8.36102e-24)
(0.00741645 3.91123e-06 0)
(0.00735586 3.97197e-06 -4.55925e-26)
(0.00729345 4.14425e-06 -5.1936e-26)
(0.00722841 4.17741e-06 0)
(0.00716236 4.26883e-06 8.48326e-24)
(0.00709518 4.21342e-06 -8.47569e-24)
(0.00702835 4.24401e-06 -7.45114e-26)
(0.00696077 4.1703e-06 3.96597e-26)
(0.00689395 4.1587e-06 -8.38661e-26)
(0.00682718 4.04037e-06 1.75883e-25)
(0.00676237 3.94902e-06 2.34646e-23)
(0.00669847 3.81933e-06 -1.80372e-23)
(0.00663671 3.68539e-06 9.65701e-26)
(0.00657675 3.53198e-06 -1.28549e-23)
(0.00651922 3.36556e-06 -1.31519e-23)
(0.00646418 3.194e-06 1.26643e-25)
(0.0064117 3.01749e-06 2.03982e-23)
(0.00636202 2.8299e-06 0)
(0.00631517 2.64646e-06 6.92785e-24)
(0.00627122 2.45499e-06 -6.90347e-24)
(0.00623022 2.26878e-06 0)
(0.00619221 2.07387e-06 6.92759e-24)
(0.00615727 1.88815e-06 -2.07046e-23)
(0.00612527 1.70036e-06 -1.3711e-23)
(0.00609627 1.51713e-06 0)
(0.00607022 1.33285e-06 0)
(0.00604713 1.15428e-06 -1.32662e-23)
(0.00602692 9.77598e-07 -3.23877e-24)
(0.00600955 8.06574e-07 3.23277e-24)
(0.00599499 6.36809e-07 -6.29008e-24)
(0.0059832 4.74442e-07 -6.15231e-24)
(0.00597407 3.1572e-07 0)
(0.00596761 1.57972e-07 -4.40374e-24)
(0.00596373 4.76086e-09 -4.03682e-26)
(0.0059624 -1.49999e-07 5.45826e-24)
(0.0059636 -2.99199e-07 -2.65681e-24)
(0.00596727 -4.47376e-07 3.23689e-24)
(0.00597335 -5.86028e-07 6.28528e-25)
(0.00598177 -7.20509e-07 -2.35662e-24)
(0.00599247 -8.4614e-07 -2.74326e-25)
(0.0060054 -9.72897e-07 1.60481e-24)
(0.00602054 -1.09658e-06 -8.89435e-25)
(0.00603786 -1.23139e-06 3.90411e-25)
(0.00605746 -1.36826e-06 -2.8891e-26)
(0.00607927 -1.50731e-06 1.00348e-25)
(0.00610331 -1.63753e-06 -1.00359e-25)
(0.00612945 -1.75274e-06 7.08713e-25)
(0.00615755 -1.8477e-06 -6.44622e-25)
(0.00618749 -1.9335e-06 0)
(0.0062192 -2.02069e-06 -2.40196e-25)
(0.00625276 -2.13723e-06 2.40533e-25)
(0.00628839 -2.27868e-06 -7.61986e-25)
(0.00632617 -2.43356e-06 -3.05597e-28)
(0.00636608 -2.56369e-06 0)
(0.00640783 -2.64832e-06 0)
(0.00645107 -2.68797e-06 0)
(0.00649554 -2.72148e-06 -1.86539e-25)
(0.00654129 -2.78547e-06 1.70659e-26)
(0.00658852 -2.89934e-06 0)
(0.00663752 -3.03738e-06 1.2617e-24)
(0.00668819 -3.15524e-06 -2.17934e-28)
(0.00674034 -3.22783e-06 -6.34104e-25)
(0.00679348 -3.24731e-06 -1.22086e-25)
(0.0068473 -3.25526e-06 7.58139e-25)
(0.00690169 -3.27085e-06 -3.7347e-24)
(0.00695671 -3.31329e-06 2.19688e-24)
(0.00701232 -3.35172e-06 -4.60585e-24)
(0.00706839 -3.3853e-06 4.82663e-24)
(0.00712467 -3.38843e-06 2.60504e-24)
(0.00718096 -3.38238e-06 -2.80354e-27)
(0.00723695 -3.33901e-06 0)
(0.00729222 -3.29406e-06 0)
(0.00734665 -3.22318e-06 0)
(0.00739983 -3.14988e-06 -3.4223e-24)
(0.0074517 -3.05064e-06 -1.04234e-23)
(0.00750161 -2.93242e-06 7.06917e-24)
(0.0075496 -2.81771e-06 -1.41825e-23)
(0.00759546 -2.65926e-06 -2.13418e-23)
(0.00763793 -2.47099e-06 0)
(0.00767779 -2.28965e-06 -1.39412e-23)
(0.00771304 -1.99693e-06 2.03049e-23)
(0.0077448 -1.84544e-06 6.49187e-24)
(0.00777198 -1.43107e-06 -6.14551e-24)
(0.00779283 -1.22295e-06 6.14861e-24)
(0.00780984 -8.13652e-07 -5.45383e-27)
(0.00781905 -4.89622e-07 4.01842e-26)
(0.00782435 -1.58639e-07 3.63087e-26)
(0.00782237 2.66898e-07 9.18138e-25)
(0.00781509 6.65485e-07 -9.22559e-25)
(0.007798 1.27872e-06 -4.45618e-26)
(0.00777795 1.24239e-06 8.72006e-27)
(0.00775617 1.81794e-06 1.39734e-28)
(0.00772731 1.96653e-06 -6.34875e-27)
(0.00980883 5.02288e-06 0)
(0.00976381 5.34896e-06 4.32231e-25)
(0.0097208 5.31389e-06 -6.05405e-26)
(0.00967302 6.8219e-06 9.00786e-24)
(0.00960706 7.38424e-06 3.01037e-24)
(0.00954341 7.78135e-06 7.57573e-24)
(0.00947252 8.38638e-06 -4.92627e-24)
(0.00939903 8.62836e-06 1.06086e-23)
(0.00932323 9.02866e-06 1.85186e-23)
(0.00924404 9.20275e-06 2.70368e-23)
(0.00916333 9.4337e-06 0)
(0.00908097 9.42534e-06 0)
(0.00899862 9.53256e-06 -1.80462e-23)
(0.00891506 9.46792e-06 1.80501e-23)
(0.00883204 9.47644e-06 0)
(0.0087488 9.29735e-06 4.14183e-23)
(0.00866765 9.13886e-06 -2.16346e-23)
(0.00858744 8.90842e-06 -2.2435e-23)
(0.00850964 8.65102e-06 4.63534e-23)
(0.00843395 8.34955e-06 4.76335e-23)
(0.00836113 8.01382e-06 1.20638e-23)
(0.00829128 7.66068e-06 -2.48511e-23)
(0.00822456 7.28912e-06 -3.7728e-23)
(0.00816122 6.89048e-06 0)
(0.00810138 6.49143e-06 0)
(0.00804511 6.07304e-06 3.87765e-23)
(0.00799253 5.65699e-06 1.2941e-23)
(0.0079437 5.22184e-06 0)
(0.00789875 4.79918e-06 1.2937e-23)
(0.00785752 4.37084e-06 1.28691e-23)
(0.00782012 3.94718e-06 2.55362e-23)
(0.00778648 3.5208e-06 0)
(0.00775664 3.10326e-06 3.74628e-23)
(0.0077305 2.68843e-06 0)
(0.00770805 2.2825e-06 0)
(0.00768922 1.87819e-06 -1.78075e-23)
(0.00767402 1.48666e-06 -1.74317e-23)
(0.00766228 1.10162e-06 -2.80328e-24)
(0.00765407 7.20506e-07 8.32883e-24)
(0.00764919 3.49748e-07 0)
(0.00764765 -2.25984e-08 -5.21e-24)
(0.00764943 -3.84647e-07 1.00742e-23)
(0.00765444 -7.43491e-07 -2.42812e-24)
(0.00766262 -1.08678e-06 0)
(0.00767392 -1.42366e-06 3.329e-24)
(0.00768827 -1.74603e-06 -5.08605e-26)
(0.00770563 -2.06862e-06 2.49916e-24)
(0.00772595 -2.38317e-06 -2.17032e-24)
(0.00774918 -2.71222e-06 -8.99702e-25)
(0.00777537 -3.0406e-06 -1.02646e-25)
(0.00780443 -3.37023e-06 1.02658e-25)
(0.00783635 -3.68631e-06 3.51672e-25)
(0.00787104 -3.98097e-06 1.66931e-24)
(0.0079084 -4.2472e-06 -1.83847e-24)
(0.00794836 -4.49957e-06 5.19364e-25)
(0.00799082 -4.74938e-06 -5.19871e-25)
(0.00803578 -5.03609e-06 7.8655e-25)
(0.00808333 -5.35018e-06 -7.23481e-25)
(0.00813343 -5.67928e-06 6.5969e-25)
(0.00818606 -5.97339e-06 0)
(0.00824103 -6.20698e-06 -2.73285e-25)
(0.00829814 -6.37862e-06 5.63479e-25)
(0.00835718 -6.5364e-06 4.87776e-25)
(0.00841808 -6.72402e-06 3.43979e-26)
(0.00848079 -6.968e-06 -4.70259e-25)
(0.00854538 -7.23646e-06 2.3718e-24)
(0.00861169 -7.47477e-06 -7.18441e-25)
(0.00867964 -7.65163e-06 -4.31516e-24)
(0.00874886 -7.74911e-06 0)
(0.00881904 -7.82191e-06 -1.23106e-23)
(0.00888997 -7.89054e-06 3.52041e-24)
(0.0089615 -7.98282e-06 0)
(0.00903346 -8.05461e-06 -4.51875e-24)
(0.00910558 -8.11181e-06 -1.41342e-23)
(0.00917762 -8.11655e-06 -2.51034e-23)
(0.00924934 -8.0986e-06 0)
(0.00932035 -8.00849e-06 0)
(0.00939012 -7.90193e-06 0)
(0.00945841 -7.74047e-06 2.45401e-23)
(0.00952469 -7.56155e-06 0)
(0.00958882 -7.326e-06 1.29161e-23)
(0.00965004 -7.04736e-06 0)
(0.00970831 -6.76304e-06 3.95895e-23)
(0.00976339 -6.38875e-06 -1.31853e-23)
(0.00981376 -5.95073e-06 3.91687e-23)
(0.00986008 -5.50151e-06 1.26334e-23)
(0.00990022 -4.86691e-06 -5.0404e-23)
(0.00993507 -4.43422e-06 -1.21639e-23)
(0.00996376 -3.56879e-06 1.12997e-23)
(0.0099837 -3.01225e-06 -3.85618e-23)
(0.00999803 -2.13871e-06 2.57516e-23)
(0.0100024 -1.39016e-06 0)
(0.0100014 -6.3397e-07 -1.69572e-23)
(0.00999152 2.8208e-07 -1.49072e-23)
(0.00997489 1.17022e-06 -1.27572e-23)
(0.00994708 2.32531e-06 0)
(0.0099163 2.43309e-06 0)
(0.0098851 3.50279e-06 -1.3564e-24)
(0.0098471 3.92108e-06 5.61847e-27)
(0.0116865 8.49029e-06 0)
(0.0116354 8.84714e-06 -2.56928e-24)
(0.0115861 9.30619e-06 -6.12569e-26)
(0.0115317 1.15393e-05 8.14635e-24)
(0.0114568 1.26781e-05 2.17823e-23)
(0.011384 1.34458e-05 0)
(0.0113037 1.44848e-05 3.30364e-23)
(0.0112205 1.50358e-05 2.81812e-23)
(0.0111349 1.57434e-05 4.38578e-23)
(0.0110454 1.61497e-05 -3.61767e-23)
(0.0109541 1.65716e-05 6.82699e-23)
(0.0108609 1.66766e-05 -7.30426e-23)
(0.0107675 1.68899e-05 1.64037e-23)
(0.0106726 1.68719e-05 5.13331e-23)
(0.0105781 1.69052e-05 -5.33704e-23)
(0.0104833 1.66726e-05 -5.61183e-23)
(0.0103906 1.64312e-05 0)
(0.010299 1.6078e-05 4.09199e-23)
(0.01021 1.56607e-05 -4.22793e-23)
(0.0101234 1.51654e-05 -4.34713e-23)
(0.01004 1.46065e-05 -6.64954e-23)
(0.00995999 1.40095e-05 9.07768e-23)
(0.00988356 1.33732e-05 2.28525e-23)
(0.00981099 1.26879e-05 0)
(0.00974245 1.19912e-05 -9.41818e-23)
(0.00967802 1.12597e-05 -3.55171e-23)
(0.00961787 1.05224e-05 -1.18553e-23)
(0.00956206 9.75307e-06 0)
(0.00951076 8.99622e-06 -9.48996e-23)
(0.00946381 8.22871e-06 -5.90056e-23)
(0.00942133 7.46382e-06 -1.6897e-26)
(0.00938328 6.69366e-06 -1.16609e-23)
(0.00934968 5.93476e-06 -3.43692e-23)
(0.00932044 5.17887e-06 2.26262e-23)
(0.00929555 4.43478e-06 -5.57588e-23)
(0.00927495 3.69308e-06 6.55812e-23)
(0.00925865 2.96988e-06 2.141e-23)
(0.00924647 2.25787e-06 -4.6996e-23)
(0.0092384 1.55449e-06 5.15988e-24)
(0.00923434 8.67202e-07 0)
(0.00923426 1.79145e-07 4.72855e-24)
(0.00923813 -4.93045e-07 -1.40203e-23)
(0.00924586 -1.15833e-06 1.79291e-23)
(0.00925738 -1.80225e-06 0)
(0.00927263 -2.43692e-06 0)
(0.00929158 -3.05121e-06 0)
(0.00931415 -3.66286e-06 6.0361e-28)
(0.00934028 -4.26006e-06 1.77723e-24)
(0.0093699 -4.8718e-06 8.37825e-25)
(0.00940305 -5.47811e-06 0)
(0.00943958 -6.08283e-06 1.81832e-24)
(0.0094795 -6.66931e-06 -3.52797e-25)
(0.00952271 -7.22893e-06 -2.49112e-24)
(0.00956914 -7.75379e-06 2.2661e-24)
(0.00961874 -8.25925e-06 0)
(0.00967139 -8.75482e-06 0)
(0.00972701 -9.28688e-06 -6.30235e-24)
(0.00978562 -9.84143e-06 1.22027e-24)
(0.00984708 -1.04079e-05 -1.2216e-24)
(0.00991139 -1.09317e-05 -3.46338e-24)
(0.00997837 -1.13856e-05 0)
(0.0100479 -1.17647e-05 3.39094e-24)
(0.0101198 -1.21175e-05 -8.72948e-25)
(0.0101939 -1.24868e-05 0)
(0.01027 -1.29037e-05 -8.64074e-25)
(0.010348 -1.33362e-05 -9.80753e-27)
(0.0104276 -1.37284e-05 -1.32219e-24)
(0.0105089 -1.40466e-05 3.98522e-24)
(0.0105916 -1.4261e-05 -2.62732e-24)
(0.0106752 -1.44309e-05 2.22993e-23)
(0.0107595 -1.45735e-05 2.55123e-23)
(0.0108442 -1.47227e-05 -2.55561e-23)
(0.0109289 -1.48261e-05 3.19177e-23)
(0.0110134 -1.48977e-05 -8.32359e-24)
(0.0110974 -1.4891e-05 9.63755e-24)
(0.0111805 -1.4839e-05 -3.95758e-23)
(0.0112624 -1.46732e-05 0)
(0.0113422 -1.44639e-05 0)
(0.0114199 -1.41624e-05 -2.2589e-23)
(0.0114946 -1.38168e-05 -3.47041e-23)
(0.0115661 -1.33751e-05 -1.17427e-23)
(0.0116337 -1.28558e-05 1.20739e-23)
(0.0116972 -1.231e-05 -4.84295e-23)
(0.0117564 -1.16222e-05 3.63357e-23)
(0.0118096 -1.08229e-05 -3.59286e-23)
(0.0118572 -9.97534e-06 2.35695e-23)
(0.0118969 -8.87404e-06 1.13563e-23)
(0.0119296 -7.99824e-06 4.44978e-23)
(0.0119545 -6.55283e-06 1.03268e-23)
(0.0119687 -5.46881e-06 -3.03603e-23)
(0.0119756 -3.98516e-06 -2.76163e-23)
(0.0119709 -2.64202e-06 8.93431e-24)
(0.0119594 -1.29414e-06 -1.18144e-23)
(0.011938 2.71246e-07 -1.71853e-23)
(0.0119087 1.80935e-06 1.15928e-23)
(0.0118677 3.60883e-06 1.88056e-23)
(0.0118239 4.05349e-06 0)
(0.0117814 5.70879e-06 1.23077e-24)
(0.0117332 6.54124e-06 0)
(0.0133613 1.29363e-05 -1.15348e-27)
(0.0133035 1.32367e-05 2.40195e-24)
(0.0132475 1.4529e-05 1.88716e-23)
(0.0131866 1.74142e-05 -1.54052e-23)
(0.0131039 1.92931e-05 -4.19127e-23)
(0.013023 2.05497e-05 5.27113e-23)
(0.0129347 2.20912e-05 -3.00839e-23)
(0.0128435 2.30573e-05 -9.56617e-23)
(0.0127497 2.41271e-05 -4.93347e-23)
(0.0126519 2.48373e-05 -2.3456e-23)
(0.0125523 2.54842e-05 -9.86071e-23)
(0.0124505 2.57566e-05 2.78708e-23)
(0.0123485 2.60921e-05 -1.15567e-22)
(0.012245 2.6149e-05 -1.53201e-22)
(0.0121418 2.62011e-05 1.64156e-22)
(0.0120384 2.59172e-05 -3.50768e-23)
(0.0119372 2.55732e-05 3.50654e-23)
(0.0118373 2.50728e-05 0)
(0.0117402 2.4459e-05 0)
(0.0116458 2.37262e-05 -1.58131e-22)
(0.0115551 2.28929e-05 2.42908e-22)
(0.011468 2.19931e-05 -2.47733e-22)
(0.011385 2.10264e-05 -2.11246e-23)
(0.0113062 1.9984e-05 2.10976e-23)
(0.011232 1.89129e-05 3.28982e-26)
(0.0111623 1.77883e-05 0)
(0.0110973 1.66449e-05 -2.16762e-23)
(0.0110372 1.54551e-05 -6.50131e-23)
(0.0109822 1.42737e-05 8.65271e-23)
(0.010932 1.30758e-05 1.29195e-22)
(0.0108869 1.18763e-05 0)
(0.0108467 1.06681e-05 -8.47609e-23)
(0.0108115 9.47265e-06 -1.04106e-23)
(0.0107812 8.2802e-06 1.03977e-23)
(0.0107558 7.10197e-06 1.22013e-22)
(0.0107352 5.92931e-06 -9.89295e-24)
(0.0107194 4.78115e-06 9.87572e-24)
(0.0107083 3.64932e-06 6.70131e-23)
(0.0107018 2.53079e-06 4.83632e-24)
(0.0106998 1.43288e-06 9.05721e-24)
(0.0107024 3.37194e-07 -4.46131e-24)
(0.0107095 -7.36678e-07 4.17768e-24)
(0.0107209 -1.79841e-06 -2.05813e-23)
(0.0107366 -2.83322e-06 0)
(0.0107566 -3.85459e-06 0)
(0.0107807 -4.84937e-06 -1.76226e-24)
(0.010809 -5.83653e-06 4.3638e-24)
(0.0108414 -6.80229e-06 8.36816e-25)
(0.0108777 -7.77962e-06 0)
(0.010918 -8.74585e-06 4.50376e-26)
(0.0109621 -9.70582e-06 -6.96474e-25)
(0.01101 -1.06424e-05 -6.47128e-25)
(0.0110616 -1.1546e-05 0)
(0.0111168 -1.24085e-05 9.31228e-24)
(0.0111757 -1.32438e-05 -9.88372e-25)
(0.011238 -1.40595e-05 1.55241e-24)
(0.0113036 -1.49053e-05 4.22748e-24)
(0.0113726 -1.5765e-05 1.09794e-23)
(0.0114446 -1.66302e-05 -2.0275e-24)
(0.0115196 -1.7445e-05 4.08426e-24)
(0.0115976 -1.81807e-05 -5.56727e-24)
(0.0116784 -1.88281e-05 -2.42879e-24)
(0.0117618 -1.94308e-05 5.01891e-25)
(0.0118476 -2.00292e-05 0)
(0.0119354 -2.06569e-05 0)
(0.012025 -2.12856e-05 1.20701e-24)
(0.0121163 -2.18608e-05 4.08957e-25)
(0.0122091 -2.23467e-05 -3.63891e-24)
(0.0123031 -2.27024e-05 2.0217e-24)
(0.012398 -2.2986e-05 -1.04219e-23)
(0.0124933 -2.32112e-05 -6.34865e-24)
(0.0125886 -2.34148e-05 3.29544e-23)
(0.0126837 -2.3541e-05 -2.93396e-23)
(0.012778 -2.36096e-05 3.18757e-23)
(0.0128712 -2.35678e-05 3.41714e-23)
(0.012963 -2.34473e-05 3.63881e-23)
(0.0130528 -2.31662e-05 0)
(0.0131399 -2.28027e-05 1.01839e-23)
(0.0132238 -2.23018e-05 -1.01914e-23)
(0.0133039 -2.17182e-05 4.27052e-23)
(0.0133798 -2.09913e-05 0)
(0.0134507 -2.01413e-05 0)
(0.0135163 -1.92266e-05 2.22525e-23)
(0.0135761 -1.81137e-05 -2.22419e-23)
(0.0136287 -1.68356e-05 0)
(0.0136742 -1.54549e-05 6.53221e-23)
(0.0137106 -1.37646e-05 2.13781e-23)
(0.0137382 -1.22807e-05 -4.08263e-23)
(0.0137567 -1.01421e-05 -7.77391e-23)
(0.0137626 -8.36284e-06 -2.78865e-23)
(0.01376 -6.14037e-06 -6.90059e-23)
(0.0137442 -4.04686e-06 -8.17998e-24)
(0.0137204 -1.95527e-06 -2.8279e-23)
(0.0136861 3.93924e-07 2.76899e-23)
(0.013643 2.71072e-06 -1.6692e-24)
(0.0135881 5.23674e-06 -1.8382e-23)
(0.0135304 6.21865e-06 -8.77024e-26)
(0.0134758 8.53266e-06 8.76953e-26)
(0.0134169 9.91061e-06 0)
(0.0148645 1.84211e-05 8.24344e-26)
(0.0147992 1.86021e-05 1.02789e-25)
(0.0147355 2.10296e-05 -1.74427e-23)
(0.0146679 2.44934e-05 0)
(0.014578 2.72507e-05 1.81757e-23)
(0.0144896 2.91065e-05 -9.14603e-23)
(0.014394 3.12101e-05 0)
(0.0142955 3.26852e-05 6.41138e-23)
(0.0141945 3.41656e-05 0)
(0.0140896 3.52397e-05 -1.03102e-22)
(0.0139827 3.61377e-05 1.11618e-22)
(0.0138739 3.66213e-05 0)
(0.0137648 3.70881e-05 4.61047e-26)
(0.0136544 3.7238e-05 2.54372e-22)
(0.0135444 3.72953e-05 -2.37053e-22)
(0.0134342 3.69539e-05 -3.05737e-23)
(0.0133266 3.64823e-05 -1.64233e-22)
(0.0132205 3.58047e-05 3.33368e-23)
(0.0131175 3.49537e-05 0)
(0.0130176 3.39363e-05 1.44386e-22)
(0.0129216 3.27752e-05 -1.4783e-22)
(0.0128297 3.15114e-05 3.01452e-22)
(0.0127423 3.01469e-05 -1.92776e-23)
(0.0126595 2.86761e-05 3.87446e-23)
(0.0125816 2.71535e-05 5.88315e-23)
(0.0125087 2.55555e-05 0)
(0.0124411 2.39212e-05 -1.97873e-23)
(0.0123787 2.22249e-05 1.18685e-22)
(0.0123218 2.05291e-05 -1.97534e-23)
(0.0122703 1.88099e-05 -7.86783e-23)
(0.0122242 1.70834e-05 0)
(0.0121836 1.53436e-05 7.74623e-23)
(0.0121484 1.36176e-05 0)
(0.0121186 1.18959e-05 0)
(0.012094 1.01906e-05 -8.35873e-23)
(0.0120747 8.4948e-06 -2.73089e-23)
(0.0120607 6.82891e-06 8.84683e-24)
(0.0120518 5.18293e-06 -4.38139e-23)
(0.012048 3.55522e-06 -8.41248e-24)
(0.0120492 1.95323e-06 8.40792e-24)
(0.0120553 3.5853e-07 0)
(0.0120664 -1.20825e-06 0)
(0.0120822 -2.75626e-06 3.37474e-23)
(0.0121028 -4.27191e-06 -3.26062e-23)
(0.0121281 -5.76837e-06 -1.69441e-24)
(0.0121579 -7.23183e-06 1.69459e-24)
(0.0121923 -8.68053e-06 -4.76915e-24)
(0.0122312 -1.01004e-05 -1.53549e-24)
(0.0122744 -1.15257e-05 0)
(0.0123219 -1.29335e-05 1.18419e-25)
(0.0123737 -1.43282e-05 -1.59859e-25)
(0.0124295 -1.56936e-05 0)
(0.0124894 -1.70192e-05 -1.00301e-24)
(0.0125533 -1.82963e-05 -1.42987e-23)
(0.012621 -1.95362e-05 0)
(0.0126926 -2.07447e-05 -1.42892e-24)
(0.0127677 -2.19709e-05 2.66326e-24)
(0.0128463 -2.31987e-05 -9.26486e-24)
(0.0129282 -2.44216e-05 -1.03543e-24)
(0.0130133 -2.55858e-05 0)
(0.0131015 -2.66604e-05 5.12918e-24)
(0.0131926 -2.76314e-05 -1.33537e-24)
(0.0132864 -2.85341e-05 4.67724e-25)
(0.0133826 -2.94044e-05 0)
(0.0134808 -3.02772e-05 -4.17864e-24)
(0.0135808 -3.11298e-05 9.50983e-24)
(0.0136823 -3.19114e-05 7.53788e-25)
(0.0137851 -3.2584e-05 1.03893e-23)
(0.0138889 -3.30972e-05 -4.42944e-24)
(0.0139933 -3.35033e-05 4.26901e-23)
(0.0140979 -3.38121e-05 -2.19187e-23)
(0.0142021 -3.40606e-05 0)
(0.0143056 -3.41936e-05 0)
(0.0144078 -3.42332e-05 -7.60685e-24)
(0.0145082 -3.41238e-05 -1.58164e-23)
(0.0146066 -3.38908e-05 -8.14143e-24)
(0.0147022 -3.34466e-05 -7.06417e-23)
(0.0147944 -3.28687e-05 0)
(0.0148825 -3.20993e-05 7.65528e-23)
(0.0149658 -3.11922e-05 7.8787e-23)
(0.0150437 -3.00833e-05 -2.02719e-23)
(0.0151154 -2.87983e-05 4.07579e-23)
(0.0151806 -2.73956e-05 -4.10347e-23)
(0.015239 -2.57367e-05 2.05422e-23)
(0.0152889 -2.38567e-05 1.01627e-22)
(0.0153304 -2.18088e-05 -1.80458e-22)
(0.0153615 -1.94078e-05 -1.91927e-23)
(0.0153824 -1.71524e-05 -5.62378e-23)
(0.0153929 -1.42072e-05 5.42771e-23)
(0.0153894 -1.15675e-05 8.52634e-23)
(0.015376 -8.47916e-06 6.30477e-23)
(0.0153483 -5.4841e-06 0)
(0.0153117 -2.5015e-06 1.04265e-22)
(0.0152639 7.58014e-07 2.65599e-24)
(0.0152068 3.97089e-06 -4.17587e-23)
(0.015138 7.30587e-06 3.16955e-23)
(0.0150664 9.02048e-06 -1.24072e-23)
(0.0149994 1.20671e-05 -1.94633e-28)
(0.0149295 1.41134e-05 -8.49551e-27)
(0.0162229 2.50017e-05 -7.74166e-26)
(0.0161491 2.50306e-05 -4.02021e-24)
(0.016077 2.88345e-05 1.00167e-26)
(0.0160025 3.28165e-05 -1.00097e-26)
(0.0159057 3.65694e-05 0)
(0.01581 3.91226e-05 3.63751e-23)
(0.0157076 4.18439e-05 1.26648e-23)
(0.0156022 4.39034e-05 8.9203e-24)
(0.0154946 4.5833e-05 1.18745e-22)
(0.0153832 4.73175e-05 2.25428e-22)
(0.0152701 4.84853e-05 2.16163e-23)
(0.0151552 4.92135e-05 1.76074e-24)
(0.0150402 4.9812e-05 2.6808e-22)
(0.014924 5.00605e-05 -1.03623e-22)
(0.0148085 5.01009e-05 -1.09585e-22)
(0.0146931 4.96855e-05 -2.30228e-22)
(0.0145806 4.90544e-05 1.20262e-22)
(0.0144698 4.81625e-05 0)
(0.0143626 4.70283e-05 0)
(0.0142588 4.56746e-05 -2.64947e-22)
(0.0141593 4.41284e-05 0)
(0.0140643 4.24367e-05 -1.38364e-22)
(0.0139741 4.06052e-05 -2.81055e-22)
(0.013889 3.86331e-05 0)
(0.0138092 3.65811e-05 -3.60614e-23)
(0.0137347 3.44292e-05 1.78937e-23)
(0.0136659 3.22194e-05 1.63229e-22)
(0.0136028 2.99313e-05 0)
(0.0135457 2.76324e-05 -1.45046e-22)
(0.0134942 2.5303e-05 0)
(0.0134486 2.29596e-05 0)
(0.0134088 2.05991e-05 0)
(0.0133748 1.82516e-05 -1.7482e-23)
(0.0133466 1.59102e-05 1.74664e-23)
(0.013324 1.35874e-05 1.36702e-22)
(0.0133071 1.12763e-05 0)
(0.0132958 8.99937e-06 0)
(0.0132901 6.74684e-06 0)
(0.0132898 4.51859e-06 0)
(0.013295 2.32148e-06 0)
(0.0133054 1.38631e-07 7.2923e-24)
(0.0133212 -2.01004e-06 -6.46842e-23)
(0.013342 -4.13203e-06 -2.76948e-23)
(0.013368 -6.21606e-06 2.66517e-23)
(0.013399 -8.2735e-06 2.24453e-23)
(0.0134349 -1.02913e-05 3.12594e-24)
(0.0134757 -1.2285e-05 -1.16374e-23)
(0.0135214 -1.42421e-05 0)
(0.0135716 -1.61955e-05 0)
(0.0136265 -1.81236e-05 -7.64005e-26)
(0.0136859 -2.00298e-05 5.49034e-25)
(0.0137496 -2.18997e-05 -5.49624e-25)
(0.0138177 -2.37215e-05 0)
(0.01389 -2.54863e-05 -7.0936e-24)
(0.0139664 -2.72015e-05 1.42649e-23)
(0.0140468 -2.88712e-05 -1.50607e-24)
(0.014131 -3.05407e-05 2.28506e-24)
(0.0142188 -3.21959e-05 -1.91485e-23)
(0.01431 -3.38313e-05 0)
(0.0144045 -3.53978e-05 -9.77548e-24)
(0.0145021 -3.68617e-05 -8.35975e-24)
(0.0146027 -3.82043e-05 -8.10661e-25)
(0.014706 -3.94497e-05 -2.05543e-24)
(0.0148117 -4.06289e-05 0)
(0.0149193 -4.17753e-05 5.19925e-24)
(0.0150285 -4.28736e-05 -8.09803e-24)
(0.015139 -4.38777e-05 0)
(0.0152506 -4.47473e-05 -8.9789e-24)
(0.0153629 -4.5425e-05 -7.54053e-24)
(0.0154755 -4.59534e-05 -3.61849e-23)
(0.0155878 -4.63385e-05 4.7601e-24)
(0.0156994 -4.66147e-05 0)
(0.0158097 -4.67303e-05 0)
(0.0159181 -4.67066e-05 1.41271e-23)
(0.0160242 -4.64879e-05 -1.41523e-23)
(0.0161274 -4.60905e-05 0)
(0.0162273 -4.54266e-05 6.57674e-23)
(0.0163227 -4.45604e-05 1.7484e-23)
(0.0164131 -4.34339e-05 7.16614e-23)
(0.0164975 -4.21012e-05 7.36401e-23)
(0.0165755 -4.05038e-05 -3.73842e-23)
(0.0166462 -3.86743e-05 1.88561e-23)
(0.0167094 -3.66658e-05 0)
(0.0167647 -3.43419e-05 -1.52843e-22)
(0.0168104 -3.17345e-05 -7.57966e-23)
(0.0168465 -2.88846e-05 7.45801e-23)
(0.0168711 -2.56489e-05 0)
(0.0168841 -2.24636e-05 -7.01246e-23)
(0.0168857 -1.85986e-05 0)
(0.0168721 -1.4941e-05 0)
(0.0168474 -1.08628e-05 -1.31301e-22)
(0.0168076 -6.82254e-06 1.402e-23)
(0.0167579 -2.80953e-06 -5.41195e-23)
(0.0166966 1.47793e-06 -7.93911e-23)
(0.0166258 5.69497e-06 3.62995e-23)
(0.0165433 9.92259e-06 -2.96177e-23)
(0.016458 1.25525e-05 1.17967e-23)
(0.0163786 1.64061e-05 -7.82549e-24)
(0.0162977 1.92347e-05 8.06322e-27)
(0.0174582 3.27242e-05 2.41778e-25)
(0.0173749 3.25995e-05 3.75032e-24)
(0.017294 3.79534e-05 0)
(0.0172123 4.2418e-05 0)
(0.0171088 4.72637e-05 6.42175e-23)
(0.017006 5.05916e-05 -8.02712e-23)
(0.016897 5.39775e-05 -9.40127e-23)
(0.0167852 5.66779e-05 1.23938e-22)
(0.0166715 5.90804e-05 -1.39306e-22)
(0.0165543 6.10054e-05 -1.3918e-22)
(0.0164357 6.24532e-05 0)
(0.0163155 6.34436e-05 0)
(0.0161956 6.4166e-05 -3.59656e-22)
(0.0160749 6.45063e-05 -2.46648e-23)
(0.0159551 6.45037e-05 2.01537e-22)
(0.0158359 6.39928e-05 2.3893e-22)
(0.0157196 6.31646e-05 -2.83233e-23)
(0.0156056 6.20147e-05 2.82904e-23)
(0.0154954 6.0546e-05 2.38154e-22)
(0.0153891 5.87995e-05 2.44925e-22)
(0.0152874 5.68079e-05 0)
(0.0151907 5.46222e-05 3.22288e-23)
(0.0150992 5.22525e-05 5.19968e-22)
(0.0150131 4.97056e-05 -3.26519e-23)
(0.0149327 4.7046e-05 0)
(0.0148581 4.426e-05 0)
(0.0147894 4.13919e-05 -4.36035e-22)
(0.0147269 3.84299e-05 3.35401e-23)
(0.0146705 3.54424e-05 1.34142e-22)
(0.0146202 3.24155e-05 0)
(0.0145762 2.9368e-05 0)
(0.0145383 2.63006e-05 -1.47999e-22)
(0.0145065 2.32439e-05 1.30396e-22)
(0.0144809 2.0193e-05 2.18151e-25)
(0.0144612 1.71622e-05 -1.10649e-22)
(0.0144476 1.41464e-05 0)
(0.01444 1.11688e-05 0)
(0.0144382 8.22096e-06 1.19271e-22)
(0.0144422 5.30422e-06 5.81937e-23)
(0.0144519 2.4244e-06 0)
(0.0144673 -4.32376e-07 0)
(0.0144882 -3.2486e-06 -6.55143e-24)
(0.0145146 -6.02906e-06 6.54421e-24)
(0.0145464 -8.76532e-06 -3.03097e-24)
(0.0145835 -1.1466e-05 -1.78143e-23)
(0.0146258 -1.41198e-05 -5.67631e-24)
(0.0146733 -1.67384e-05 1.35897e-23)
(0.0147258 -1.93119e-05 1.02666e-23)
(0.0147833 -2.18695e-05 -4.84689e-24)
(0.0148456 -2.43931e-05 7.1082e-26)
(0.0149126 -2.68835e-05 4.25088e-24)
(0.0149842 -2.9329e-05 0)
(0.0150603 -3.17163e-05 -1.73038e-24)
(0.0151408 -3.40364e-05 1.49356e-23)
(0.0152256 -3.62915e-05 -1.32976e-23)
(0.0153146 -3.84851e-05 1.19946e-23)
(0.0154074 -4.06554e-05 0)
(0.015504 -4.27921e-05 1.57288e-23)
(0.015604 -4.48896e-05 0)
(0.0157072 -4.69045e-05 1.02282e-23)
(0.0158136 -4.88001e-05 7.4594e-24)
(0.0159229 -5.05532e-05 0)
(0.0160349 -5.21753e-05 -2.02483e-24)
(0.0161491 -5.36921e-05 1.56558e-24)
(0.0162651 -5.51341e-05 -7.04193e-24)
(0.0163826 -5.64929e-05 0)
(0.016501 -5.77271e-05 0)
(0.0166202 -5.87946e-05 -1.98214e-23)
(0.0167398 -5.96333e-05 -3.13238e-23)
(0.0168592 -6.02735e-05 4.43511e-24)
(0.016978 -6.0718e-05 -4.23085e-23)
(0.0170955 -6.09959e-05 0)
(0.0172112 -6.10611e-05 1.22249e-23)
(0.0173245 -6.09313e-05 9.68152e-25)
(0.0174347 -6.0553e-05 -1.22836e-22)
(0.0175414 -5.99299e-05 1.16669e-22)
(0.0176439 -5.89692e-05 -1.22994e-22)
(0.0177408 -5.7716e-05 1.28597e-22)
(0.0178317 -5.61325e-05 -2.66871e-22)
(0.0179156 -5.42722e-05 -1.37432e-22)
(0.0179922 -5.20838e-05 -1.76673e-23)
(0.0180605 -4.95985e-05 3.55251e-23)
(0.0181203 -4.68621e-05 -1.7853e-23)
(0.0181712 -4.37509e-05 1.43305e-22)
(0.0182115 -4.02896e-05 0)
(0.0182411 -3.65045e-05 -1.39734e-22)
(0.0182582 -3.23101e-05 1.35926e-22)
(0.0182626 -2.80451e-05 1.31344e-22)
(0.0182546 -2.31483e-05 0)
(0.0182305 -1.83263e-05 -1.42609e-23)
(0.0181943 -1.31393e-05 1.10661e-22)
(0.0181422 -7.92074e-06 1.3116e-23)
(0.0180796 -2.74866e-06 0)
(0.0180051 2.67419e-06 -4.7123e-24)
(0.0179208 7.99429e-06 7.45082e-23)
(0.017825 1.31977e-05 -5.70106e-23)
(0.0177266 1.69073e-05 0)
(0.0176348 2.16406e-05 1.451e-23)
(0.017543 2.53561e-05 -1.69984e-28)
(0.0185878 4.16233e-05 -2.27735e-25)
(0.0184943 4.13783e-05 0)
(0.0184043 4.83939e-05 0)
(0.0183151 5.33344e-05 7.91167e-25)
(0.0182052 5.9344e-05 -5.87361e-23)
(0.0180957 6.35071e-05 -4.87857e-24)
(0.0179806 6.75903e-05 9.27479e-23)
(0.0178628 7.09728e-05 -1.90164e-22)
(0.0177436 7.38626e-05 -1.36176e-23)
(0.0176212 7.62427e-05 -1.70185e-23)
(0.0174978 7.79724e-05 1.70301e-23)
(0.0173731 7.92253e-05 4.03188e-23)
(0.0172492 8.00519e-05 1.27087e-22)
(0.0171248 8.04646e-05 0)
(0.0170019 8.03851e-05 -4.83752e-23)
(0.0168798 7.97512e-05 7.36324e-23)
(0.0167611 7.86837e-05 -2.52839e-23)
(0.016645 7.72279e-05 0)
(0.0165332 7.53708e-05 -4.15004e-22)
(0.0164255 7.31732e-05 -2.84569e-22)
(0.016323 7.0673e-05 -6.61856e-25)
(0.0162258 6.79254e-05 -2.08291e-22)
(0.016134 6.49459e-05 -2.11251e-22)
(0.0160482 6.17499e-05 -3.03773e-23)
(0.0159683 5.84049e-05 -2.78057e-22)
(0.0158946 5.49053e-05 3.09747e-23)
(0.0158271 5.12973e-05 4.9953e-22)
(0.0157661 4.75805e-05 3.12562e-23)
(0.0157116 4.38217e-05 2.18547e-22)
(0.0156636 4.00127e-05 0)
(0.015622 3.61751e-05 2.32009e-22)
(0.015587 3.23139e-05 1.56225e-25)
(0.0155583 2.84608e-05 -2.27589e-22)
(0.0155361 2.46134e-05 1.19878e-22)
(0.0155202 2.07874e-05 1.181e-22)
(0.0155106 1.69806e-05 1.16087e-22)
(0.0155073 1.32159e-05 0)
(0.01551 9.48723e-06 -9.76399e-23)
(0.0155189 5.79716e-06 -7.48367e-23)
(0.0155338 2.15028e-06 6.70875e-24)
(0.0155545 -1.46315e-06 5.14349e-23)