/*--------------------------------*- C++ -*----------------------------------*\
| =========                 |                                                 |
| \\      /  F ield         | OpenFOAM: The Open Source CFD Toolbox           |
|  \\    /   O peration     | Version:  2306                                  |
|   \\  /    A nd           | Website:  www.openfoam.com                      |
|    \\/     M anipulation  |                                                 |
\*---------------------------------------------------------------------------*/
// * * * * * * * * * * * * * * * * * * * * * * * * * * * * * * * * * * * * * //
FoamFile
{
    version         2;
    format          ascii;
    class           volScalarField;
    location        "97.86";
    object          epsilon;
}

dimensions      [ 0 2 -3 0 0 0 0 ];

internalField   nonuniform List<scalar> 
15625
(
0.00148601
0.00173373
0.00226392
0.00305947
0.00408352
0.00528884
0.00662686
0.00805376
0.00953329
0.0110373
0.0125449
0.0140414
0.015517
0.0169652
0.0183825
0.0197667
0.0211171
0.0224337
0.0237171
0.024968
0.0261875
0.0273766
0.0285364
0.029668
0.0307725
0.031851
0.0329045
0.0339338
0.0349399
0.0359238
0.036886
0.0378276
0.0387491
0.0396513
0.0405347
0.0414001
0.042248
0.0430789
0.0438935
0.044692
0.0454752
0.0462433
0.0469968
0.0477361
0.0484616
0.0491736
0.0498725
0.0505587
0.0512324
0.0518939
0.0525435
0.0531815
0.0538081
0.0544236
0.0550282
0.0556221
0.0562056
0.0567788
0.0573419
0.0578951
0.0584386
0.0589726
0.0594971
0.0600124
0.0605185
0.0610157
0.061504
0.0619835
0.0624544
0.0629167
0.0633707
0.0638162
0.0642535
0.0646827
0.0651037
0.0655167
0.0659217
0.0663188
0.066708
0.0670895
0.0674631
0.0678291
0.0681873
0.0685379
0.0688809
0.0692162
0.069544
0.0698641
0.0701767
0.0704817
0.0707792
0.071069
0.0713513
0.071626
0.0718931
0.0721525
0.0724043
0.0726484
0.0728848
0.0731135
0.0733343
0.0735473
0.0737525
0.0739497
0.0741388
0.07432
0.074493
0.0746578
0.0748144
0.0749626
0.0751024
0.0752336
0.0753563
0.0754703
0.0755754
0.0756717
0.0757589
0.0758369
0.0759057
0.0759651
0.076015
0.0760552
0.0760856
0.076106
0.0761163
0.00173373
0.00127168
0.001274
0.0015057
0.0018701
0.00231695
0.00281483
0.00334202
0.00388309
0.00442721
0.00496699
0.00549761
0.00601614
0.00652095
0.00701129
0.00748701
0.00794831
0.00839559
0.0088294
0.00925032
0.00965895
0.0100559
0.0104417
0.010817
0.0111822
0.0115378
0.0118843
0.0122221
0.0125515
0.012873
0.013187
0.0134936
0.0137932
0.014086
0.0143725
0.0146526
0.0149268
0.0151952
0.0154581
0.0157155
0.0159677
0.0162149
0.0164571
0.0166947
0.0169276
0.017156
0.0173801
0.0176
0.0178158
0.0180276
0.0182354
0.0184395
0.0186398
0.0188365
0.0190297
0.0192193
0.0194056
0.0195886
0.0197683
0.0199448
0.0201181
0.0202884
0.0204556
0.0206199
0.0207812
0.0209396
0.0210952
0.021248
0.021398
0.0215453
0.0216898
0.0218318
0.021971
0.0221077
0.0222417
0.0223732
0.0225022
0.0226286
0.0227526
0.022874
0.022993
0.0231095
0.0232235
0.0233352
0.0234443
0.0235511
0.0236555
0.0237574
0.0238569
0.023954
0.0240487
0.024141
0.0242309
0.0243184
0.0244034
0.0244861
0.0245662
0.024644
0.0247193
0.0247921
0.0248624
0.0249303
0.0249956
0.0250584
0.0251187
0.0251764
0.0252315
0.025284
0.0253339
0.0253811
0.0254256
0.0254675
0.0255065
0.0255428
0.0255763
0.025607
0.0256348
0.0256597
0.0256816
0.0257005
0.0257164
0.0257292
0.0257389
0.0257454
0.0257487
0.00226392
0.001274
0.000964198
0.000944561
0.00106335
0.00125403
0.00148371
0.00173421
0.00199462
0.00225807
0.00252023
0.00277839
0.00303098
0.00327711
0.00351641
0.00374878
0.00397433
0.00419327
0.00440585
0.00461237
0.00481312
0.00500839
0.00519846
0.00538358
0.005564
0.00573995
0.00591164
0.00607927
0.00624301
0.00640305
0.00655953
0.0067126
0.0068624
0.00700905
0.00715268
0.00729339
0.0074313
0.00756649
0.00769905
0.00782908
0.00795666
0.00808185
0.00820473
0.00832537
0.00844383
0.00856018
0.00867446
0.00878673
0.00889704
0.00900545
0.00911198
0.00921669
0.00931962
0.00942081
0.00952028
0.00961809
0.00971424
0.00980879
0.00990175
0.00999316
0.010083
0.0101714
0.0102583
0.0103437
0.0104277
0.0105103
0.0105914
0.0106712
0.0107496
0.0108266
0.0109023
0.0109767
0.0110497
0.0111215
0.0111919
0.0112611
0.0113289
0.0113955
0.0114608
0.0115249
0.0115877
0.0116492
0.0117095
0.0117685
0.0118263
0.0118829
0.0119382
0.0119922
0.012045
0.0120966
0.0121469
0.012196
0.0122438
0.0122903
0.0123356
0.0123796
0.0124224
0.0124638
0.012504
0.0125428
0.0125804
0.0126166
0.0126515
0.0126851
0.0127173
0.0127482
0.0127776
0.0128057
0.0128324
0.0128577
0.0128816
0.012904
0.0129249
0.0129444
0.0129624
0.0129788
0.0129937
0.013007
0.0130188
0.013029
0.0130375
0.0130444
0.0130496
0.0130531
0.0130548
0.00305947
0.0015057
0.000944561
0.00077526
0.000778618
0.000865191
0.000994215
0.00114527
0.00130729
0.00147398
0.00164161
0.00180794
0.00197167
0.00213209
0.00228883
0.00244173
0.00259079
0.00273608
0.00287772
0.00301585
0.00315062
0.00328217
0.00341065
0.0035362
0.00365895
0.00377902
0.00389651
0.00401155
0.00412423
0.00423463
0.00434286
0.00444897
0.00455306
0.00465519
0.00475542
0.00485383
0.00495045
0.00504535
0.00513859
0.0052302
0.00532023
0.00540873
0.00549573
0.00558127
0.00566539
0.00574812
0.0058295
0.00590955
0.0059883
0.00606578
0.00614202
0.00621703
0.00629085
0.00636349
0.00643498
0.00650533
0.00657457
0.0066427
0.00670976
0.00677574
0.00684067
0.00690457
0.00696743
0.00702929
0.00709014
0.00715
0.00720887
0.00726678
0.00732372
0.00737971
0.00743475
0.00748886
0.00754202
0.00759426
0.00764557
0.00769597
0.00774545
0.00779403
0.00784169
0.00788845
0.0079343
0.00797926
0.00802332
0.00806647
0.00810873
0.00815009
0.00819054
0.0082301
0.00826876
0.00830651
0.00834335
0.00837928
0.0084143
0.00844841
0.00848159
0.00851384
0.00854517
0.00857556
0.00860501
0.00863351
0.00866105
0.00868763
0.00871324
0.00873787
0.00876152
0.00878417
0.00880581
0.00882644
0.00884604
0.0088646
0.00888212
0.00889857
0.00891395
0.00892824
0.00894143
0.0089535
0.00896445
0.00897425
0.00898288
0.00899034
0.00899661
0.00900166
0.00900547
0.00900804
0.00900933
0.00408352
0.0018701
0.00106335
0.000778618
0.00071108
0.000743294
0.000824245
0.000929652
0.00104718
0.00117025
0.00129521
0.00142
0.00154347
0.00166495
0.00178412
0.00190082
0.00201501
0.00212671
0.00223597
0.00234287
0.00244751
0.00254996
0.00265032
0.00274867
0.00284508
0.00293963
0.00303239
0.00312342
0.00321279
0.00330055
0.00338675
0.00347144
0.00355467
0.00363648
0.00371692
0.00379601
0.00387379
0.0039503
0.00402557
0.00409963
0.00417251
0.00424423
0.00431482
0.0043843
0.0044527
0.00452004
0.00458633
0.0046516
0.00471586
0.00477914
0.00484145
0.0049028
0.00496321
0.0050227
0.00508127
0.00513895
0.00519574
0.00525165
0.0053067
0.00536089
0.00541424
0.00546675
0.00551844
0.00556931
0.00561937
0.00566863
0.00571708
0.00576475
0.00581164
0.00585774
0.00590308
0.00594764
0.00599144
0.00603448
0.00607676
0.00611829
0.00615907
0.00619909
0.00623837
0.00627691
0.0063147
0.00635175
0.00638806
0.00642363
0.00645845
0.00649253
0.00652587
0.00655847
0.00659032
0.00662142
0.00665177
0.00668137
0.00671022
0.00673831
0.00676564
0.00679221
0.006818
0.00684303
0.00686727
0.00689074
0.00691341
0.00693529
0.00695637
0.00697664
0.0069961
0.00701474
0.00703254
0.00704952
0.00706564
0.00708091
0.00709532
0.00710885
0.0071215
0.00713325
0.0071441
0.00715403
0.00716303
0.00717108
0.00717819
0.00718432
0.00718947
0.00719362
0.00719676
0.00719887
0.00719993
0.00528884
0.00231695
0.00125403
0.000865191
0.000743294
0.000738689
0.00078906
0.00086606
0.000956017
0.00105202
0.00115042
0.00124927
0.00134748
0.00144446
0.00153992
0.0016337
0.00172574
0.00181606
0.00190468
0.00199164
0.002077
0.00216081
0.00224313
0.00232401
0.0024035
0.00248165
0.0025585
0.00263408
0.00270845
0.00278163
0.00285365
0.00292455
0.00299435
0.00306309
0.00313078
0.00319744
0.00326311
0.00332779
0.00339152
0.00345431
0.00351617
0.00357712
0.00363718
0.00369636
0.00375468
0.00381214
0.00386878
0.00392458
0.00397957
0.00403376
0.00408716
0.00413978
0.00419162
0.0042427
0.00429303
0.00434261
0.00439145
0.00443956
0.00448695
0.00453363
0.00457959
0.00462484
0.0046694
0.00471327
0.00475645
0.00479895
0.00484077
0.00488191
0.00492239
0.0049622
0.00500135
0.00503983
0.00507766
0.00511484
0.00515137
0.00518724
0.00522247
0.00525705
0.00529099
0.00532428
0.00535694
0.00538894
0.00542031
0.00545104
0.00548112
0.00551056
0.00553935
0.0055675
0.00559501
0.00562187
0.00564808
0.00567363
0.00569854
0.00572279
0.00574638
0.0057693
0.00579156
0.00581316
0.00583408
0.00585432
0.00587388
0.00589275
0.00591093
0.00592841
0.00594519
0.00596125
0.00597661
0.00599123
0.00600513
0.00601829
0.00603071
0.00604237
0.00605326
0.00606339
0.00607274
0.00608129
0.00608904
0.00609598
0.0061021
0.00610738
0.00611182
0.00611539
0.00611809
0.00611991
0.00612083
0.00662686
0.00281483
0.00148371
0.000994215
0.000824245
0.00078906
0.000814806
0.000869335
0.000937794
0.00101294
0.00109108
0.00117026
0.00124941
0.00132796
0.00140559
0.00148215
0.00155756
0.00163181
0.00170489
0.00177683
0.00184766
0.0019174
0.0019861
0.00205378
0.00212047
0.0021862
0.00225099
0.00231487
0.00237786
0.00243999
0.00250126
0.0025617
0.00262132
0.00268014
0.00273816
0.00279542
0.0028519
0.00290763
0.00296263
0.00301688
0.00307042
0.00312324
0.00317535
0.00322676
0.00327749
0.00332753
0.0033769
0.0034256
0.00347363
0.00352101
0.00356774
0.00361382
0.00365926
0.00370407
0.00374825
0.0037918
0.00383474
0.00387705
0.00391876
0.00395985
0.00400034
0.00404023
0.00407953
0.00411822
0.00415633
0.00419385
0.00423078
0.00426713
0.0043029
0.00433809
0.0043727
0.00440673
0.0044402
0.00447309
0.0045054
0.00453715
0.00456833
0.00459895
0.00462899
0.00465847
0.00468738
0.00471572
0.0047435
0.00477071
0.00479735
0.00482342
0.00484893
0.00487386
0.00489822
0.004922
0.00494522
0.00496785
0.0049899
0.00501137
0.00503226
0.00505256
0.00507227
0.00509139
0.00510991
0.00512783
0.00514514
0.00516184
0.00517793
0.0051934
0.00520825
0.00522247
0.00523605
0.005249
0.00526129
0.00527294
0.00528392
0.00529423
0.00530387
0.00531283
0.00532109
0.00532866
0.00533551
0.00534165
0.00534706
0.00535173
0.00535565
0.00535881
0.0053612
0.00536281
0.00536362
0.00805376
0.00334202
0.00173421
0.00114527
0.000929652
0.00086606
0.000869335
0.000903846
0.000953641
0.00101109
0.00107234
0.00113533
0.00119895
0.00126256
0.00132581
0.00138852
0.00145057
0.00151191
0.00157251
0.00163239
0.00169153
0.00174995
0.00180767
0.0018647
0.00192106
0.00197675
0.00203179
0.00208619
0.00213996
0.00219312
0.00224566
0.0022976
0.00234895
0.0023997
0.00244987
0.00249946
0.00254848
0.00259693
0.00264481
0.00269213
0.0027389
0.00278511
0.00283076
0.00287587
0.00292043
0.00296445
0.00300793
0.00305087
0.00309328
0.00313515
0.00317649
0.0032173
0.00325758
0.00329734
0.00333657
0.00337528
0.00341347
0.00345114
0.00348829
0.00352493
0.00356105
0.00359666
0.00363175
0.00366634
0.00370041
0.00373398
0.00376703
0.00379958
0.00383163
0.00386316
0.0038942
0.00392472
0.00395475
0.00398427
0.00401328
0.00404179
0.0040698
0.0040973
0.0041243
0.0041508
0.00417679
0.00420228
0.00422726
0.00425173
0.00427569
0.00429915
0.0043221
0.00434453
0.00436645
0.00438786
0.00440875
0.00442912
0.00444898
0.0044683
0.00448711
0.00450538
0.00452312
0.00454033
0.00455701
0.00457314
0.00458872
0.00460376
0.00461824
0.00463217
0.00464554
0.00465834
0.00467056
0.00468221
0.00469328
0.00470376
0.00471365
0.00472293
0.0047316
0.00473967
0.0047471
0.00475391
0.00476008
0.0047656
0.00477047
0.00477468
0.0047782
0.00478105
0.0047832
0.00478464
0.00478537
0.00953329
0.00388309
0.00199462
0.00130729
0.00104718
0.000956017
0.000937794
0.000953641
0.000986509
0.0010283
0.00107488
0.00112403
0.0011745
0.00122558
0.00127684
0.00132803
0.00137899
0.00142963
0.0014799
0.00152978
0.00157924
0.00162827
0.00167688
0.00172506
0.00177281
0.00182013
0.00186704
0.00191352
0.00195958
0.00200522
0.00205044
0.00209525
0.00213964
0.00218361
0.00222717
0.00227031
0.00231303
0.00235533
0.00239722
0.00243869
0.00247974
0.00252036
0.00256057
0.00260035
0.00263971
0.00267865
0.00271715
0.00275524
0.0027929
0.00283012
0.00286692
0.00290329
0.00293923
0.00297474
0.00300982
0.00304446
0.00307867
0.00311245
0.00314579
0.0031787
0.00321117
0.0032432
0.00327479
0.00330595
0.00333667
0.00336695
0.00339679
0.00342619
0.00345515
0.00348367
0.00351174
0.00353937
0.00356656
0.0035933
0.0036196
0.00364545
0.00367086
0.00369581
0.00372032
0.00374438
0.00376798
0.00379114
0.00381384
0.00383608
0.00385787
0.0038792
0.00390007
0.00392048
0.00394042
0.0039599
0.00397892
0.00399746
0.00401553
0.00403313
0.00405025
0.0040669
0.00408306
0.00409873
0.00411392
0.00412861
0.00414281
0.00415651
0.00416971
0.0041824
0.00419457
0.00420624
0.00421738
0.004228
0.00423808
0.00424763
0.00425664
0.0042651
0.004273
0.00428035
0.00428713
0.00429333
0.00429895
0.00430399
0.00430842
0.00431225
0.00431547
0.00431806
0.00432002
0.00432134
0.004322
0.0110373
0.00442721
0.00225807
0.00147398
0.00117025
0.00105202
0.00101294
0.00101109
0.0010283
0.0010559
0.00108944
0.00112647
0.00116556
0.00120587
0.00124689
0.00128828
0.00132985
0.00137145
0.00141299
0.00145443
0.00149571
0.00153681
0.00157771
0.00161839
0.00165886
0.00169909
0.00173907
0.00177882
0.00181831
0.00185754
0.00189651
0.00193522
0.00197365
0.00201181
0.00204969
0.00208729
0.00212459
0.00216161
0.00219833
0.00223475
0.00227087
0.00230668
0.00234217
0.00237735
0.00241221
0.00244675
0.00248096
0.00251485
0.00254839
0.00258161
0.00261448
0.00264701
0.0026792
0.00271104
0.00274252
0.00277366
0.00280443
0.00283485
0.00286491
0.0028946
0.00292393
0.00295288
0.00298147
0.00300969
0.00303753
0.00306499
0.00309208
0.00311878
0.0031451
0.00317104
0.00319659
0.00322175
0.00324653
0.00327091
0.0032949
0.00331849
0.00334169
0.00336449
0.00338689
0.00340888
0.00343047
0.00345166
0.00347244
0.00349281
0.00351277
0.00353231
0.00355144
0.00357015
0.00358844
0.00360631
0.00362376
0.00364077
0.00365736
0.00367352
0.00368924
0.00370452
0.00371936
0.00373376
0.00374772
0.00376122
0.00377427
0.00378686
0.00379899
0.00381065
0.00382185
0.00383257
0.00384282
0.00385258
0.00386185
0.00387064
0.00387892
0.0038867
0.00389397
0.00390073
0.00390696
0.00391267
0.00391784
0.00392247
0.00392655
0.00393008
0.00393304
0.00393542
0.00393722
0.00393844
0.00393905
0.0125449
0.00496699
0.00252023
0.00164161
0.00129521
0.00115042
0.00109108
0.00107234
0.00107488
0.00108944
0.00111118
0.00113738
0.00116642
0.0011973
0.00122941
0.00126234
0.00129581
0.00132964
0.0013637
0.0013979
0.00143217
0.00146648
0.00150078
0.00153504
0.00156925
0.00160338
0.00163742
0.00167136
0.00170519
0.00173889
0.00177245
0.00180588
0.00183915
0.00187227
0.00190521
0.00193798
0.00197058
0.00200298
0.00203519
0.0020672
0.002099
0.00213059
0.00216196
0.0021931
0.00222401
0.00225469
0.00228513
0.00231532
0.00234525
0.00237493
0.00240435
0.0024335
0.00246239
0.00249099
0.00251932
0.00254736
0.00257512
0.00260258
0.00262975
0.00265661
0.00268318
0.00270944
0.00273538
0.00276101
0.00278633
0.00281132
0.002836
0.00286034
0.00288436
0.00290804
0.00293139
0.0029544
0.00297707
0.00299939
0.00302137
0.003043
0.00306428
0.00308521
0.00310578
0.00312599
0.00314584
0.00316532
0.00318444
0.00320319
0.00322157
0.00323958
0.00325721
0.00327446
0.00329133
0.00330782
0.00332391
0.00333962
0.00335494
0.00336986
0.00338439
0.00339851
0.00341223
0.00342554
0.00343844
0.00345093
0.003463
0.00347465
0.00348588
0.00349667
0.00350703
0.00351696
0.00352644
0.00353548
0.00354407
0.0035522
0.00355988
0.00356708
0.00357382
0.00358008
0.00358585
0.00359114
0.00359593
0.00360022
0.00360401
0.00360727
0.00361001
0.00361222
0.00361389
0.00361502
0.00361558
0.0140414
0.00549761
0.00277839
0.00180794
0.00142
0.00124927
0.00117026
0.00113533
0.00112403
0.00112647
0.00113738
0.00115375
0.00117377
0.00119627
0.00122051
0.001246
0.00127238
0.00129944
0.00132698
0.0013549
0.00138311
0.00141152
0.0014401
0.0014688
0.00149758
0.00152642
0.0015553
0.0015842
0.0016131
0.00164198
0.00167083
0.00169964
0.0017284
0.0017571
0.00178572
0.00181425
0.0018427
0.00187104
0.00189928
0.00192739
0.00195538
0.00198324
0.00201095
0.00203852
0.00206593
0.00209318
0.00212027
0.00214717
0.0021739
0.00220043
0.00222678
0.00225292
0.00227886
0.00230458
0.00233009
0.00235538
0.00238043
0.00240526
0.00242985
0.0024542
0.00247829
0.00250214
0.00252573
0.00254906
0.00257213
0.00259492
0.00261744
0.00263969
0.00266165
0.00268333
0.00270472
0.00272581
0.00274661
0.00276711
0.00278731
0.0028072
0.00282678
0.00284605
0.00286501
0.00288364
0.00290195
0.00291994
0.00293759
0.00295492
0.00297191
0.00298856
0.00300488
0.00302085
0.00303647
0.00305175
0.00306667
0.00308123
0.00309544
0.00310929
0.00312277
0.00313588
0.00314862
0.00316099
0.00317297
0.00318458
0.0031958
0.00320663
0.00321707
0.00322711
0.00323675
0.00324599
0.00325482
0.00326323
0.00327122
0.0032788
0.00328594
0.00329265
0.00329893
0.00330476
0.00331014
0.00331506
0.00331953
0.00332352
0.00332705
0.00333009
0.00333265
0.0033347
0.00333626
0.00333731
0.00333784
0.015517
0.00601614
0.00303098
0.00197167
0.00154347
0.00134748
0.00124941
0.00119895
0.0011745
0.00116556
0.00116642
0.00117377
0.00118556
0.00120049
0.00121768
0.00123654
0.00125665
0.00127772
0.00129953
0.00132194
0.00134482
0.00136807
0.00139165
0.00141547
0.00143951
0.00146373
0.00148809
0.00151256
0.00153714
0.00156179
0.0015865
0.00161125
0.00163603
0.00166083
0.00168563
0.00171043
0.0017352
0.00175995
0.00178465
0.00180931
0.00183391
0.00185844
0.0018829
0.00190728
0.00193156
0.00195575
0.00197983
0.00200379
0.00202763
0.00205135
0.00207493
0.00209836
0.00212165
0.00214478
0.00216775
0.00219056
0.00221319
0.00223564
0.0022579
0.00227997
0.00230185
0.00232352
0.00234498
0.00236623
0.00238727
0.00240808
0.00242866
0.00244901
0.00246912
0.00248899
0.00250861
0.00252798
0.0025471
0.00256596
0.00258455
0.00260288
0.00262094
0.00263872
0.00265622
0.00267344
0.00269037
0.00270701
0.00272336
0.00273941
0.00275516
0.0027706
0.00278574
0.00280057
0.00281508
0.00282928
0.00284315
0.0028567
0.00286992
0.00288281
0.00289536
0.00290758
0.00291945
0.00293098
0.00294216
0.00295299
0.00296345
0.00297356
0.00298331
0.00299269
0.00300169
0.00301032
0.00301857
0.00302643
0.0030339
0.00304098
0.00304766
0.00305394
0.00305981
0.00306526
0.0030703
0.0030749
0.00307908
0.00308282
0.00308612
0.00308897
0.00309136
0.00309329
0.00309474
0.00309572
0.00309622
0.0169652
0.00652095
0.00327711
0.00213209
0.00166495
0.00144446
0.00132796
0.00126256
0.00122558
0.00120587
0.0011973
0.00119627
0.00120049
0.00120849
0.00121927
0.00123215
0.00124662
0.00126235
0.00127906
0.00129657
0.00131473
0.00133343
0.00135258
0.00137211
0.00139196
0.00141209
0.00143246
0.00145304
0.0014738
0.00149471
0.00151575
0.00153692
0.00155817
0.00157952
0.00160093
0.00162239
0.0016439
0.00166544
0.001687
0.00170857
0.00173013
0.00175169
0.00177323
0.00179474
0.00181622
0.00183764
0.00185902
0.00188033
0.00190157
0.00192274
0.00194382
0.00196481
0.0019857
0.00200648
0.00202715
0.0020477
0.00206812
0.00208841
0.00210856
0.00212856
0.00214841
0.00216811
0.00218764
0.00220699
0.00222618
0.00224518
0.00226399
0.00228262
0.00230104
0.00231926
0.00233728
0.00235508
0.00237266
0.00239003
0.00240716
0.00242406
0.00244073
0.00245716
0.00247334
0.00248927
0.00250495
0.00252037
0.00253553
0.00255043
0.00256505
0.00257941
0.00259348
0.00260727
0.00262078
0.002634
0.00264693
0.00265956
0.00267189
0.00268392
0.00269564
0.00270705
0.00271814
0.00272891
0.00273937
0.00274949
0.00275929
0.00276875
0.00277788
0.00278666
0.00279509
0.00280318
0.00281091
0.00281828
0.00282529
0.00283193
0.00283819
0.00284408
0.00284959
0.00285471
0.00285943
0.00286376
0.00286768
0.00287119
0.00287429
0.00287696
0.00287921
0.00288102
0.00288239
0.00288331
0.00288377
0.0183825
0.00701129
0.00351641
0.00228883
0.00178412
0.00153992
0.00140559
0.00132581
0.00127684
0.00124689
0.00122941
0.00122051
0.00121768
0.00121927
0.00122417
0.00123158
0.00124094
0.00125183
0.00126394
0.00127706
0.001291
0.00130563
0.00132084
0.00133655
0.00135268
0.00136918
0.00138601
0.00140312
0.00142049
0.00143808
0.00145587
0.00147383
0.00149195
0.00151021
0.00152859
0.00154709
0.00156567
0.00158434
0.00160308
0.00162188
0.00164072
0.0016596
0.00167851
0.00169744
0.00171638
0.00173531
0.00175424
0.00177315
0.00179204
0.00181089
0.0018297
0.00184846
0.00186717
0.00188581
0.00190438
0.00192288
0.00194128
0.0019596
0.00197781
0.00199592
0.00201392
0.0020318
0.00204956
0.00206718
0.00208467
0.00210201
0.0021192
0.00213624
0.00215311
0.00216982
0.00218636
0.00220272
0.00221889
0.00223488
0.00225067
0.00226627
0.00228166
0.00229685
0.00231182
0.00232657
0.0023411
0.0023554
0.00236947
0.00238331
0.0023969
0.00241025
0.00242335
0.0024362
0.00244879
0.00246112
0.00247318
0.00248497
0.00249649
0.00250773
0.00251869
0.00252936
0.00253975
0.00254984
0.00255963
0.00256912
0.00257831
0.00258718
0.00259574
0.00260398
0.0026119
0.0026195
0.00262676
0.00263368
0.00264027
0.00264651
0.0026524
0.00265794
0.00266312
0.00266794
0.00267238
0.00267646
0.00268015
0.00268345
0.00268637
0.00268889
0.002691
0.00269271
0.002694
0.00269486
0.0026953
0.0197667
0.00748701
0.00374878
0.00244173
0.00190082
0.0016337
0.00148215
0.00138852
0.00132803
0.00128828
0.00126234
0.001246
0.00123654
0.00123215
0.00123158
0.00123395
0.0012386
0.00124508
0.00125302
0.00126216
0.00127229
0.00128325
0.00129492
0.0013072
0.00132
0.00133325
0.00134691
0.00136093
0.00137526
0.00138988
0.00140476
0.00141986
0.00143517
0.00145067
0.00146634
0.00148217
0.00149813
0.00151422
0.00153042
0.00154672
0.00156311
0.00157957
0.00159611
0.0016127
0.00162934
0.00164601
0.00166272
0.00167945
0.00169619
0.00171293
0.00172968
0.00174641
0.00176312
0.0017798
0.00179645
0.00181306
0.00182962
0.00184612
0.00186256
0.00187893
0.00189523
0.00191143
0.00192755
0.00194358
0.0019595
0.00197531
0.001991
0.00200657
0.00202202
0.00203733
0.0020525
0.00206752
0.00208239
0.00209711
0.00211166
0.00212605
0.00214026
0.00215429
0.00216814
0.0021818
0.00219527
0.00220853
0.0022216
0.00223445
0.00224709
0.00225952
0.00227172
0.00228369
0.00229543
0.00230694
0.0023182
0.00232922
0.00233999
0.00235051
0.00236077
0.00237076
0.00238049
0.00238995
0.00239914
0.00240804
0.00241667
0.002425
0.00243305
0.00244079
0.00244824
0.00245538
0.00246221
0.00246873
0.00247493
0.00248081
0.00248636
0.00249158
0.00249646
0.002501
0.00250519
0.00250903
0.00251251
0.00251563
0.00251838
0.00252076
0.00252275
0.00252436
0.00252558
0.0025264
0.00252681
0.0211171
0.00794831
0.00397433
0.00259079
0.00201501
0.00172574
0.00155756
0.00145057
0.00137899
0.00132985
0.00129581
0.00127238
0.00125665
0.00124662
0.00124094
0.0012386
0.00123891
0.00124131
0.00124542
0.00125092
0.00125758
0.00126521
0.00127368
0.00128285
0.00129264
0.00130298
0.00131378
0.00132501
0.00133662
0.00134857
0.00136083
0.00137336
0.00138615
0.00139916
0.00141239
0.00142581
0.00143941
0.00145317
0.00146708
0.00148112
0.00149529
0.00150957
0.00152394
0.00153841
0.00155297
0.00156759
0.00158227
0.00159701
0.00161179
0.00162661
0.00164146
0.00165633
0.00167122
0.0016861
0.00170099
0.00171586
0.00173072
0.00174556
0.00176036
0.00177512
0.00178984
0.00180451
0.00181911
0.00183365
0.00184812
0.00186251
0.00187682
0.00189103
0.00190514
0.00191915
0.00193305
0.00194684
0.0019605
0.00197403
0.00198743
0.00200068
0.0020138
0.00202676
0.00203956
0.00205221
0.00206468
0.00207698
0.00208911
0.00210105
0.0021128
0.00212436
0.00213572
0.00214688
0.00215783
0.00216857
0.0021791
0.0021894
0.00219947
0.00220931
0.00221892
0.00222829
0.00223741
0.00224629
0.00225491
0.00226327
0.00227137
0.00227921
0.00228677
0.00229406
0.00230107
0.00230779
0.00231423
0.00232037
0.00232622
0.00233176
0.00233699
0.00234192
0.00234652
0.00235081
0.00235476
0.00235839
0.00236168
0.00236462
0.00236722
0.00236946
0.00237135
0.00237287
0.00237402
0.00237479
0.00237518
0.0224337
0.00839559
0.00419327
0.00273608
0.00212671
0.00181606
0.00163181
0.00151191
0.00142963
0.00137145
0.00132964
0.00129944
0.00127772
0.00126235
0.00125183
0.00124508
0.00124131
0.00123993
0.00124048
0.00124263
0.0012461
0.00125069
0.00125623
0.00126258
0.00126964
0.00127732
0.00128554
0.00129425
0.0013034
0.00131293
0.00132282
0.00133304
0.00134354
0.00135432
0.00136534
0.00137659
0.00138804
0.0013997
0.00141153
0.00142352
0.00143567
0.00144796
0.00146038
0.00147292
0.00148557
0.00149832
0.00151116
0.00152408
0.00153707
0.00155013
0.00156324
0.0015764
0.00158961
0.00160284
0.0016161
0.00162938
0.00164267
0.00165596
0.00166925
0.00168253
0.00169579
0.00170902
0.00172222
0.00173539
0.00174851
0.00176158
0.00177459
0.00178753
0.00180041
0.0018132
0.00182592
0.00183854
0.00185107
0.0018635
0.00187581
0.00188802
0.0019001
0.00191206
0.00192388
0.00193557
0.00194712
0.00195852
0.00196976
0.00198085
0.00199177
0.00200252
0.00201309
0.00202349
0.0020337
0.00204372
0.00205355
0.00206318
0.0020726
0.00208181
0.00209081
0.00209959
0.00210814
0.00211647
0.00212456
0.00213242
0.00214003
0.0021474
0.00215452
0.00216138
0.00216798
0.00217431
0.00218038
0.00218617
0.00219168
0.00219691
0.00220185
0.0022065
0.00221085
0.00221489
0.00221863
0.00222206
0.00222517
0.00222795
0.00223041
0.00223253
0.00223431
0.00223575
0.00223684
0.00223757
0.00223794
0.0237171
0.0088294
0.00440585
0.00287772
0.00223597
0.00190468
0.00170489
0.00157251
0.0014799
0.00141299
0.0013637
0.00132698
0.00129953
0.00127906
0.00126394
0.00125302
0.00124542
0.00124048
0.00123772
0.00123675
0.00123727
0.00123905
0.00124189
0.00124566
0.00125022
0.00125548
0.00126135
0.00126776
0.00127467
0.00128202
0.00128976
0.00129786
0.0013063
0.00131504
0.00132406
0.00133334
0.00134285
0.00135259
0.00136253
0.00137267
0.00138298
0.00139346
0.0014041
0.00141488
0.00142579
0.00143682
0.00144797
0.00145923
0.00147058
0.00148202
0.00149353
0.00150513
0.00151678
0.00152849
0.00154025
0.00155206
0.00156389
0.00157576
0.00158764
0.00159954
0.00161145
0.00162335
0.00163525
0.00164713
0.001659
0.00167083
0.00168263
0.0016944
0.00170611
0.00171778
0.00172938
0.00174092
0.00175238
0.00176377
0.00177507
0.00178628
0.0017974
0.00180842
0.00181932
0.00183011
0.00184079
0.00185133
0.00186175
0.00187203
0.00188216
0.00189215
0.00190199
0.00191166
0.00192118
0.00193052
0.00193969
0.00194868
0.00195749
0.00196611
0.00197453
0.00198276
0.00199078
0.00199859
0.00200618
0.00201356
0.00202072
0.00202765
0.00203434
0.0020408
0.00204701
0.00205298
0.0020587
0.00206416
0.00206936
0.00207429
0.00207896
0.00208335
0.00208746
0.00209128
0.00209481
0.00209805
0.00210099
0.00210362
0.00210595
0.00210795
0.00210964
0.002111
0.00211203
0.00211272
0.00211307
0.024968
0.00925032
0.00461237
0.00301585
0.00234287
0.00199164
0.00177683
0.00163239
0.00152978
0.00145443
0.0013979
0.0013549
0.00132194
0.00129657
0.00127706
0.00126216
0.00125092
0.00124263
0.00123675
0.00123286
0.00123062
0.00122979
0.00123014
0.00123152
0.00123378
0.00123681
0.00124052
0.00124484
0.0012497
0.00125505
0.00126083
0.00126702
0.00127357
0.00128046
0.00128765
0.00129513
0.00130288
0.00131088
0.0013191
0.00132754
0.00133618
0.00134501
0.00135401
0.00136318
0.0013725
0.00138196
0.00139156
0.00140129
0.00141113
0.00142108
0.00143113
0.00144128
0.0014515
0.00146181
0.00147218
0.00148262
0.00149311
0.00150365
0.00151424
0.00152485
0.0015355
0.00154617
0.00155685
0.00156754
0.00157823
0.00158891
0.00159958
0.00161024
0.00162087
0.00163146
0.00164203
0.00165254
0.00166301
0.00167342
0.00168377
0.00169405
0.00170425
0.00171438
0.00172442
0.00173436
0.00174421
0.00175395
0.00176358
0.0017731
0.00178249
0.00179176
0.00180089
0.00180989
0.00181874
0.00182745
0.00183599
0.00184438
0.00185261
0.00186066
0.00186854
0.00187624
0.00188375
0.00189107
0.0018982
0.00190513
0.00191185
0.00191836
0.00192466
0.00193073
0.00193658
0.0019422
0.00194759
0.00195274
0.00195764
0.0019623
0.0019667
0.00197085
0.00197473
0.00197834
0.00198168
0.00198474
0.00198752
0.00199001
0.00199221
0.00199411
0.0019957
0.00199699
0.00199797
0.00199862
0.00199895
0.0261875
0.00965895
0.00481312
0.00315062
0.00244751
0.002077
0.00184766
0.00169153
0.00157924
0.00149571
0.00143217
0.00138311
0.00134482
0.00131473
0.001291
0.00127229
0.00125758
0.0012461
0.00123727
0.00123062
0.0012258
0.00122252
0.00122055
0.00121971
0.00121983
0.00122081
0.00122254
0.00122493
0.00122791
0.00123142
0.00123541
0.00123984
0.00124466
0.00124986
0.00125539
0.00126123
0.00126736
0.00127376
0.00128041
0.0012873
0.0012944
0.00130172
0.00130923
0.00131692
0.00132478
0.00133281
0.00134098
0.0013493
0.00135776
0.00136634
0.00137503
0.00138384
0.00139275
0.00140175
0.00141085
0.00142002
0.00142926
0.00143858
0.00144795
0.00145737
0.00146684
0.00147636
0.0014859
0.00149547
0.00150507
0.00151467
0.00152429
0.0015339
0.00154351
0.00155311
0.00156269
0.00157225
0.00158177
0.00159126
0.00160071
0.00161011
0.00161945
0.00162874
0.00163795
0.0016471
0.00165616
0.00166514
0.00167403
0.00168282
0.00169151
0.00170009
0.00170856
0.00171691
0.00172513
0.00173323
0.00174119
0.001749
0.00175667
0.00176419
0.00177155
0.00177875
0.00178578
0.00179264
0.00179931
0.00180581
0.00181212
0.00181823
0.00182415
0.00182986
0.00183537
0.00184066
0.00184573
0.00185058
0.0018552
0.0018596
0.00186375
0.00186766
0.00187132
0.00187474
0.00187789
0.00188078
0.00188341
0.00188577
0.00188784
0.00188964
0.00189115
0.00189237
0.00189329
0.00189391
0.00189422
0.0273766
0.0100559
0.00500839
0.00328217
0.00254996
0.00216081
0.0019174
0.00174995
0.00162827
0.00153681
0.00146648
0.00141152
0.00136807
0.00133343
0.00130563
0.00128325
0.00126521
0.00125069
0.00123905
0.00122979
0.00122252
0.00121694
0.00121279
0.00120987
0.00120801
0.00120707
0.00120695
0.00120755
0.0012088
0.00121062
0.00121296
0.00121577
0.00121902
0.00122265
0.00122666
0.00123099
0.00123564
0.00124058
0.00124579
0.00125125
0.00125696
0.00126288
0.00126902
0.00127535
0.00128188
0.00128858
0.00129544
0.00130247
0.00130964
0.00131696
0.0013244
0.00133198
0.00133967
0.00134747
0.00135537
0.00136337
0.00137145
0.00137962
0.00138787
0.00139618
0.00140456
0.00141299
0.00142148
0.00143
0.00143857
0.00144716
0.00145579
0.00146442
0.00147308
0.00148173
0.00149039
0.00149904
0.00150768
0.0015163
0.0015249
0.00153346