/*--------------------------------*- C++ -*----------------------------------*\
| =========                 |                                                 |
| \\      /  F ield         | OpenFOAM: The Open Source CFD Toolbox           |
|  \\    /   O peration     | Version:  2306                                  |
|   \\  /    A nd           | Website:  www.openfoam.com                      |
|    \\/     M anipulation  |                                                 |
\*---------------------------------------------------------------------------*/
// * * * * * * * * * * * * * * * * * * * * * * * * * * * * * * * * * * * * * //
FoamFile
{
    version         2;
    format          ascii;
    class           volScalarField;
    location        "97.86";
    object          k;
}

dimensions      [ 0 2 -2 0 0 0 0 ];

internalField   nonuniform List<scalar> 
15625
(
0.000472693
0.000523865
0.000625854
0.000765004
0.000927375
0.00110189
0.00128067
0.00145847
0.00163203
0.00179945
0.00195979
0.00211271
0.00225824
0.00239666
0.00252834
0.00265372
0.00277325
0.00288735
0.00299645
0.00310091
0.00320107
0.00329725
0.00338973
0.00347876
0.00356458
0.00364738
0.00372737
0.0038047
0.00387954
0.00395203
0.00402229
0.00409045
0.00415662
0.00422089
0.00428335
0.0043441
0.00440321
0.00446076
0.00451681
0.00457143
0.00462468
0.00467661
0.00472728
0.00477672
0.004825
0.00487215
0.0049182
0.00496321
0.0050072
0.00505021
0.00509227
0.00513341
0.00517365
0.00521303
0.00525157
0.00528929
0.00532621
0.00536237
0.00539776
0.00543242
0.00546637
0.00549962
0.00553218
0.00556407
0.00559531
0.00562592
0.00565589
0.00568525
0.00571401
0.00574217
0.00576976
0.00579677
0.00582323
0.00584912
0.00587448
0.0058993
0.00592358
0.00594735
0.0059706
0.00599333
0.00601557
0.0060373
0.00605854
0.00607929
0.00609955
0.00611933
0.00613864
0.00615746
0.00617581
0.0061937
0.00621111
0.00622806
0.00624454
0.00626055
0.00627611
0.0062912
0.00630583
0.00631999
0.00633369
0.00634693
0.00635971
0.00637202
0.00638386
0.00639523
0.00640614
0.00641657
0.00642652
0.006436
0.00644499
0.0064535
0.00646152
0.00646905
0.00647608
0.0064826
0.00648862
0.00649413
0.00649912
0.00650358
0.00650752
0.00651091
0.00651376
0.00651606
0.00651779
0.00651896
0.00651955
0.000523865
0.000448239
0.000456498
0.000509687
0.000587589
0.000678334
0.000774605
0.000871887
0.000967478
0.00105985
0.00114824
0.00123236
0.00131219
0.0013879
0.00145972
0.00152792
0.00159277
0.00165456
0.00171352
0.00176989
0.00182387
0.00187565
0.00192539
0.00197324
0.00201935
0.00206382
0.00210677
0.00214829
0.00218847
0.0022274
0.00226514
0.00230176
0.00233733
0.00237189
0.00240551
0.00243822
0.00247007
0.0025011
0.00253134
0.00256084
0.00258962
0.00261772
0.00264516
0.00267196
0.00269815
0.00272376
0.0027488
0.0027733
0.00279727
0.00282073
0.0028437
0.00286619
0.00288822
0.0029098
0.00293094
0.00295166
0.00297197
0.00299187
0.00301138
0.00303051
0.00304927
0.00306766
0.0030857
0.00310339
0.00312073
0.00313774
0.00315442
0.00317078
0.00318683
0.00320256
0.00321798
0.0032331
0.00324793
0.00326246
0.0032767
0.00329066
0.00330433
0.00331772
0.00333084
0.00334368
0.00335625
0.00336855
0.00338058
0.00339235
0.00340385
0.00341509
0.00342607
0.00343678
0.00344724
0.00345744
0.00346738
0.00347706
0.00348648
0.00349565
0.00350455
0.0035132
0.00352159
0.00352972
0.00353759
0.0035452
0.00355255
0.00355964
0.00356646
0.00357301
0.0035793
0.00358532
0.00359106
0.00359653
0.00360173
0.00360665
0.00361129
0.00361564
0.00361971
0.00362349
0.00362698
0.00363017
0.00363306
0.00363565
0.00363793
0.0036399
0.00364155
0.00364288
0.00364389
0.00364457
0.00364491
0.000625854
0.000456498
0.000408821
0.000423776
0.000472567
0.000539727
0.000616216
0.000696522
0.000777291
0.000856548
0.000933203
0.00100673
0.00107694
0.00114386
0.00120762
0.00126839
0.0013264
0.00138183
0.00143489
0.00148577
0.00153463
0.00158162
0.0016269
0.00167056
0.00171274
0.00175353
0.00179302
0.0018313
0.00186843
0.00190449
0.00193953
0.00197362
0.0020068
0.00203913
0.00207063
0.00210137
0.00213136
0.00216064
0.00218925
0.00221722
0.00224457
0.00227132
0.00229751
0.00232314
0.00234825
0.00237285
0.00239696
0.00242059
0.00244376
0.00246649
0.00248878
0.00251066
0.00253213
0.0025532
0.00257389
0.00259421
0.00261416
0.00263375
0.00265299
0.00267189
0.00269045
0.00270869
0.00272661
0.00274421
0.0027615
0.00277849
0.00279517
0.00281157
0.00282767
0.00284348
0.00285901
0.00287426
0.00288924
0.00290394
0.00291837
0.00293253
0.00294642
0.00296005
0.00297341
0.00298651
0.00299936
0.00301194
0.00302427
0.00303634
0.00304815
0.0030597
0.003071
0.00308205
0.00309284
0.00310337
0.00311365
0.00312367
0.00313343
0.00314294
0.00315218
0.00316117
0.0031699
0.00317836
0.00318656
0.00319449
0.00320216
0.00320956
0.00321669
0.00322354
0.00323012
0.00323642
0.00324244
0.00324818
0.00325363
0.0032588
0.00326367
0.00326824
0.00327252
0.00327649
0.00328016
0.00328352
0.00328656
0.00328929
0.00329169
0.00329376
0.0032955
0.00329691
0.00329797
0.00329868
0.00329904
0.000765004
0.000509687
0.000423776
0.000424243
0.000471307
0.000543793
0.000629424
0.000720786
0.000813412
0.000904695
0.000993203
0.00107823
0.00115952
0.00123705
0.00131096
0.00138145
0.00144873
0.00151306
0.00157464
0.00163369
0.00169041
0.00174497
0.00179752
0.00184821
0.00189718
0.00194453
0.00199038
0.00203481
0.00207792
0.00211978
0.00216047
0.00220005
0.00223858
0.00227611
0.0023127
0.00234839
0.00238323
0.00241725
0.00245049
0.00248298
0.00251476
0.00254586
0.0025763
0.00260611
0.0026353
0.00266391
0.00269196
0.00271945
0.00274642
0.00277288
0.00279884
0.00282431
0.00284932
0.00287387
0.00289798
0.00292165
0.00294491
0.00296775
0.00299019
0.00301224
0.0030339
0.00305519
0.0030761
0.00309666
0.00311685
0.00313669
0.00315619
0.00317535
0.00319417
0.00321266
0.00323082
0.00324866
0.00326617
0.00328337
0.00330026
0.00331683
0.0033331
0.00334906
0.00336471
0.00338006
0.00339511
0.00340985
0.0034243
0.00343844
0.00345229
0.00346584
0.00347909
0.00349205
0.0035047
0.00351706
0.00352912
0.00354088
0.00355234
0.0035635
0.00357435
0.00358491
0.00359515
0.00360509
0.00361472
0.00362404
0.00363305
0.00364174
0.00365011
0.00365817
0.0036659
0.00367331
0.00368038
0.00368713
0.00369353
0.0036996
0.00370533
0.00371071
0.00371574
0.00372041
0.00372472
0.00372867
0.00373225
0.00373545
0.00373827
0.00374071
0.00374276
0.00374441
0.00374566
0.0037465
0.00374692
0.000927375
0.000587589
0.000472567
0.000471307
0.000530942
0.000622669
0.000729736
0.000842415
0.000955222
0.00106521
0.00117091
0.00127172
0.00136752
0.00145844
0.00154473
0.00162672
0.00170473
0.00177909
0.00185008
0.00191799
0.00198307
0.00204553
0.00210559
0.00216342
0.00221918
0.00227302
0.00232507
0.00237545
0.00242426
0.0024716
0.00251756
0.00256222
0.00260565
0.00264792
0.00268908
0.00272921
0.00276834
0.00280652
0.0028438
0.00288022
0.00291582
0.00295063
0.00298468
0.003018
0.00305063
0.00308259
0.00311389
0.00314458
0.00317466
0.00320415
0.00323308
0.00326146
0.00328931
0.00331665
0.00334348
0.00336982
0.00339568
0.00342108
0.00344603
0.00347053
0.0034946
0.00351825
0.00354147
0.00356429
0.00358671
0.00360873
0.00363037
0.00365162
0.0036725
0.003693
0.00371314
0.00373292
0.00375234
0.0037714
0.00379012
0.00380848
0.0038265
0.00384418
0.00386152
0.00387852
0.00389518
0.00391151
0.00392751
0.00394317
0.0039585
0.00397349
0.00398816
0.0040025
0.0040165
0.00403018
0.00404352
0.00405653
0.0040692
0.00408155
0.00409355
0.00410522
0.00411656
0.00412755
0.0041382
0.0041485
0.00415846
0.00416807
0.00417733
0.00418623
0.00419478
0.00420297
0.00421079
0.00421824
0.00422532
0.00423203
0.00423836
0.0042443
0.00424986
0.00425502
0.00425979
0.00426415
0.00426811
0.00427165
0.00427477
0.00427746
0.00427973
0.00428155
0.00428293
0.00428385
0.00428432
0.00110189
0.000678334
0.000539727
0.000543793
0.000622669
0.000738364
0.000869099
0.00100318
0.00113474
0.00126103
0.00138098
0.00149432
0.00160125
0.00170214
0.00179744
0.00188762
0.00197312
0.00205437
0.00213174
0.00220557
0.00227617
0.0023438
0.00240871
0.00247111
0.00253119
0.00258912
0.00264505
0.00269912
0.00275146
0.00280217
0.00285135
0.0028991
0.0029455
0.00299062
0.00303453
0.00307731
0.003119
0.00315966
0.00319933
0.00323807
0.00327592
0.00331292
0.00334909
0.00338448
0.00341912
0.00345303
0.00348624
0.00351879
0.00355068
0.00358195
0.00361261
0.00364268
0.00367218
0.00370113
0.00372954
0.00375743
0.00378481
0.0038117
0.0038381
0.00386403
0.0038895
0.00391451
0.00393908
0.00396322
0.00398693
0.00401022
0.0040331
0.00405557
0.00407765
0.00409933
0.00412062
0.00414153
0.00416206
0.00418221
0.00420199
0.0042214
0.00424045
0.00425914
0.00427746
0.00429543
0.00431304
0.0043303
0.0043472
0.00436375
0.00437995
0.0043958
0.0044113
0.00442645
0.00444125
0.0044557
0.0044698
0.00448354
0.00449694
0.00450998
0.00452267
0.004535
0.00454697
0.00455859
0.00456984
0.00458073
0.00459125
0.00460141
0.00461119
0.0046206
0.00462963
0.00463828
0.00464654
0.00465442
0.0046619
0.00466899
0.00467568
0.00468196
0.00468783
0.00469329
0.00469832
0.00470293
0.00470711
0.00471085
0.00471415
0.00471699
0.00471939
0.00472131
0.00472277
0.00472375
0.00472424
0.00128067
0.000774605
0.000616216
0.000629424
0.000729736
0.000869099
0.00102104
0.00117278
0.00131876
0.00145692
0.00158676
0.00170849
0.00182263
0.00192979
0.00203063
0.00212573
0.00221566
0.0023009
0.00238191
0.00245907
0.00253273
0.00260318
0.00267071
0.00273555
0.00279791
0.00285798
0.00291592
0.00297189
0.00302601
0.00307842
0.00312922
0.00317851
0.00322637
0.0032729
0.00331817
0.00336224
0.00340518
0.00344704
0.00348788
0.00352775
0.00356668
0.00360473
0.00364194
0.00367832
0.00371393
0.00374879
0.00378293
0.00381637
0.00384915
0.00388128
0.00391278
0.00394368
0.003974
0.00400374
0.00403293
0.00406159
0.00408973
0.00411735
0.00414448
0.00417113
0.0041973
0.00422301
0.00424826
0.00427307
0.00429744
0.00432139
0.00434491
0.00436802
0.00439071
0.00441301
0.0044349
0.00445641
0.00447752
0.00449825
0.0045186
0.00453858
0.00455818
0.0045774
0.00459626
0.00461475
0.00463288
0.00465064
0.00466805
0.00468509
0.00470177
0.00471809
0.00473405
0.00474965
0.0047649
0.00477978
0.0047943
0.00480847
0.00482227
0.00483571
0.00484878
0.00486149
0.00487383
0.0048858
0.0048974
0.00490862
0.00491947
0.00492994
0.00494002
0.00494972
0.00495903
0.00496795
0.00497647
0.0049846
0.00499231
0.00499962
0.00500652
0.005013
0.00501905
0.00502468
0.00502987
0.00503463
0.00503894
0.0050428
0.0050462
0.00504914
0.0050516
0.00505359
0.0050551
0.00505611
0.00505661
0.00145847
0.000871887
0.000696522
0.000720786
0.000842415
0.00100318
0.00117278
0.00133817
0.00149467
0.00164102
0.00177739
0.00190442
0.00202295
0.00213382
0.0022378
0.00233562
0.0024279
0.0025152
0.00259802
0.00267678
0.00275186
0.00282359
0.00289226
0.00295812
0.0030214
0.0030823
0.00314101
0.00319767
0.00325243
0.00330542
0.00335675
0.00340654
0.00345487
0.00350183
0.0035475
0.00359195
0.00363525
0.00367745
0.00371862
0.00375879
0.00379803
0.00383637
0.00387384
0.0039105
0.00394638
0.00398149
0.00401588
0.00404958
0.0040826
0.00411497
0.00414671
0.00417785
0.0042084
0.00423838
0.00426781
0.0042967
0.00432507
0.00435293
0.00438029
0.00440717
0.00443358
0.00445952
0.00448501
0.00451005
0.00453466
0.00455884
0.0045826
0.00460594
0.00462888
0.00465141
0.00467354
0.00469529
0.00471664
0.0047376
0.00475819
0.0047784
0.00479823
0.00481769
0.00483679
0.00485551
0.00487387
0.00489186
0.00490949
0.00492676
0.00494366
0.0049602
0.00497638
0.0049922
0.00500766
0.00502276
0.00503749
0.00505186
0.00506587
0.0050795
0.00509277
0.00510567
0.0051182
0.00513036
0.00514214
0.00515353
0.00516455
0.00517519
0.00518543
0.00519529
0.00520475
0.00521381
0.00522248
0.00523073
0.00523858
0.00524601
0.00525302
0.00525961
0.00526576
0.00527149
0.00527677
0.0052816
0.00528599
0.00528991
0.00529337
0.00529636
0.00529887
0.00530089
0.00530242
0.00530345
0.00530396
0.00163203
0.000967478
0.000777291
0.000813412
0.000955222
0.00113474
0.00131876
0.00149467
0.0016588
0.00181081
0.00195146
0.00208181
0.00220294
0.00231588
0.00242152
0.00252067
0.00261403
0.00270219
0.00278568
0.00286497
0.00294045
0.00301247
0.00308133
0.00314731
0.00321065
0.00327155
0.0033302
0.00338677
0.00344141
0.00349424
0.0035454
0.00359499
0.00364311
0.00368984
0.00373528
0.00377948
0.00382253
0.00386448
0.00390539
0.00394532
0.0039843
0.00402239
0.00405962
0.00409604
0.00413168
0.00416656
0.00420073
0.00423421
0.00426702
0.00429919
0.00433074
0.00436169
0.00439207
0.00442188
0.00445115
0.00447989
0.00450812
0.00453585
0.00456309
0.00458986
0.00461615
0.004642
0.0046674
0.00469236
0.0047169
0.00474101
0.00476471
0.004788
0.0048109
0.00483339
0.0048555
0.00487721
0.00489855
0.0049195
0.00494009
0.0049603
0.00498014
0.00499961
0.00501872
0.00503746
0.00505584
0.00507387
0.00509153
0.00510883
0.00512578
0.00514236
0.00515859
0.00517446
0.00518997
0.00520512
0.00521991
0.00523433
0.0052484
0.00526209
0.00527542
0.00528838
0.00530098
0.00531319
0.00532503
0.0053365
0.00534758
0.00535827
0.00536858
0.00537849
0.00538802
0.00539714
0.00540585
0.00541416
0.00542206
0.00542954
0.0054366
0.00544324
0.00544944
0.0054552
0.00546052
0.00546539
0.00546981
0.00547376
0.00547725
0.00548026
0.00548279
0.00548482
0.00548637
0.0054874
0.00548792
0.00179945
0.00105985
0.000856548
0.000904695
0.00106521
0.00126103
0.00145692
0.00164102
0.00181081
0.00196679
0.00211028
0.00224268
0.00236531
0.00247932
0.00258572
0.00268537
0.00277902
0.00286731
0.00295079
0.00302995
0.0031052
0.00317691
0.00324539
0.00331093
0.00337378
0.00343415
0.00349223
0.0035482
0.00360222
0.00365442
0.00370493
0.00375386
0.00380131
0.00384737
0.00389213
0.00393567
0.00397805
0.00401933
0.00405959
0.00409886
0.0041372
0.00417466
0.00421127
0.00424708
0.00428212
0.00431643
0.00435002
0.00438294
0.00441521
0.00444685
0.00447789
0.00450835
0.00453824
0.00456758
0.0045964
0.0046247
0.0046525
0.00467982
0.00470667
0.00473305
0.00475899
0.00478448
0.00480954
0.00483418
0.0048584
0.00488222
0.00490564
0.00492866
0.00495129
0.00497354
0.00499541
0.0050169
0.00503802
0.00505878
0.00507917
0.0050992
0.00511887
0.00513818
0.00515714
0.00517574
0.00519399
0.00521188
0.00522943
0.00524662
0.00526346
0.00527996
0.0052961
0.00531188
0.00532732
0.0053424
0.00535712
0.00537149
0.0053855
0.00539915
0.00541244
0.00542536
0.00543792
0.0054501
0.00546191
0.00547335
0.00548441
0.00549509
0.00550538
0.00551528
0.00552479
0.00553391
0.00554262
0.00555092
0.00555882
0.00556629
0.00557335
0.00557999
0.00558619
0.00559195
0.00559727
0.00560214
0.00560656
0.00561052
0.005614
0.00561702
0.00561955
0.00562159
0.00562313
0.00562416
0.00562469
0.00195979
0.00114824
0.000933203
0.000993203
0.00117091
0.00138098
0.00158676
0.00177739
0.00195146
0.00211028
0.00225565
0.0023893
0.00251272
0.0026272
0.0027338
0.00283346
0.00292694
0.00301493
0.003098
0.00317664
0.0032513
0.00332234
0.00339009
0.00345486
0.00351688
0.00357639
0.00363359
0.00368865
0.00374174
0.00379299
0.00384254
0.00389051
0.00393699
0.00398209
0.00402588
0.00406846
0.00410988
0.00415022
0.00418953
0.00422788
0.0042653
0.00430185
0.00433758
0.00437251
0.00440669
0.00444015
0.00447292
0.00450503
0.00453651
0.00456737
0.00459766
0.00462737
0.00465654
0.00468519
0.00471332
0.00474096
0.00476812
0.00479481
0.00482105
0.00484685
0.00487221
0.00489715
0.00492168
0.0049458
0.00496953
0.00499286
0.00501581
0.00503838
0.00506058
0.00508241
0.00510388
0.00512499
0.00514574
0.00516614
0.00518619
0.00520589
0.00522525
0.00524426
0.00526293
0.00528125
0.00529924
0.00531688
0.00533419
0.00535115
0.00536778
0.00538406
0.0054
0.0054156
0.00543086
0.00544577
0.00546034
0.00547455
0.00548842
0.00550193
0.00551509
0.00552789
0.00554034
0.00555241
0.00556413
0.00557547
0.00558644
0.00559704
0.00560725
0.00561708
0.00562652
0.00563557
0.00564422
0.00565247
0.00566032
0.00566775
0.00567477
0.00568136
0.00568752
0.00569326
0.00569855
0.0057034
0.00570779
0.00571173
0.00571519
0.00571819
0.00572071
0.00572274
0.00572427
0.0057253
0.00572582
0.00211271
0.00123236
0.00100673
0.00107823
0.00127172
0.00149432
0.00170849
0.00190442
0.00208181
0.00224268
0.0023893
0.00252366
0.00264743
0.00276198
0.00286846
0.00296781
0.00306087
0.00314831
0.00323074
0.00330865
0.00338251
0.00345268
0.00351952
0.00358331
0.00364432
0.00370279
0.00375891
0.00381287
0.00386484
0.00391497
0.00396337
0.00401019
0.00405552
0.00409945
0.00414209
0.00418351
0.00422379
0.00426298
0.00430116
0.00433839
0.0043747
0.00441016
0.0044448
0.00447867
0.00451179
0.00454422
0.00457597
0.00460709
0.00463758
0.00466749
0.00469683
0.00472563
0.0047539
0.00478167
0.00480894
0.00483574
0.00486209
0.00488798
0.00491344
0.00493848
0.00496311
0.00498734
0.00501117
0.00503462
0.00505769
0.0050804
0.00510273
0.00512471
0.00514633
0.00516761
0.00518854
0.00520913
0.00522938
0.00524929
0.00526887
0.00528812
0.00530704
0.00532564
0.0053439
0.00536184
0.00537945
0.00539674
0.0054137
0.00543034
0.00544665
0.00546263
0.00547828
0.0054936
0.00550859
0.00552325
0.00553757
0.00555156
0.00556521
0.00557851
0.00559147
0.00560408
0.00561634
0.00562825
0.0056398
0.00565098
0.00566181
0.00567226
0.00568235
0.00569205
0.00570138
0.00571032
0.00571887
0.00572703
0.00573478
0.00574213
0.00574907
0.00575559
0.00576169
0.00576736
0.0057726
0.0057774
0.00578175
0.00578564
0.00578908
0.00579204
0.00579454
0.00579655
0.00579807
0.00579909
0.0057996
0.00225824
0.00131219
0.00107694
0.00115952
0.00136752
0.00160125
0.00182263
0.00202295
0.00220294
0.00236531
0.00251272
0.00264743
0.00277124
0.00288561
0.00299175
0.00309063
0.0031831
0.00326987
0.00335153
0.0034286
0.00350155
0.00357076
0.00363658
0.00369931
0.00375922
0.00381655
0.0038715
0.00392427
0.00397502
0.00402391
0.00407107
0.00411662
0.00416068
0.00420335
0.00424472
0.00428486
0.00432387
0.0043618
0.00439872
0.0044347
0.00446977
0.004504
0.00453743
0.00457009
0.00460203
0.00463329
0.00466389
0.00469386
0.00472324
0.00475205
0.00478032
0.00480805
0.00483529
0.00486204
0.00488831
0.00491414
0.00493953
0.00496449
0.00498905
0.0050132
0.00503696
0.00506034
0.00508335
0.005106
0.00512829
0.00515024
0.00517184
0.0051931
0.00521403
0.00523463
0.00525491
0.00527486
0.0052945
0.00531382
0.00533282
0.00535152
0.0053699
0.00538797
0.00540574
0.00542319
0.00544034
0.00545718
0.00547371
0.00548992
0.00550583
0.00552143
0.00553671
0.00555168
0.00556632
0.00558065
0.00559466
0.00560835
0.0056217
0.00563473
0.00564743
0.00565979
0.00567181
0.00568348
0.00569482
0.0057058
0.00571642
0.00572669
0.0057366
0.00574614
0.00575531
0.0057641
0.00577251
0.00578053
0.00578816
0.00579539
0.00580222
0.00580865
0.00581465
0.00582024
0.0058254
0.00583013
0.00583441
0.00583825
0.00584164
0.00584456
0.00584702
0.005849
0.0058505
0.00585151
0.00585202
0.00239666
0.0013879
0.00114386
0.00123705
0.00145844
0.00170214
0.00192979
0.00213382
0.00231588
0.00247932
0.0026272
0.00276198
0.00288561
0.00299963
0.00310528
0.00320358
0.00329538
0.00338139
0.00346223
0.00353842
0.00361043
0.00367864
0.00374341
0.00380504
0.00386382
0.00391997
0.00397372
0.00402526
0.00407476
0.00412237
0.00416823
0.00421248
0.00425522
0.00429656
0.00433659
0.0043754
0.00441306
0.00444966
0.00448525
0.0045199
0.00455365
0.00458657
0.00461869
0.00465006
0.00468073
0.00471072
0.00474007
0.00476881
0.00479697
0.00482458
0.00485167
0.00487824
0.00490433
0.00492996
0.00495513
0.00497988
0.00500421
0.00502813
0.00505167
0.00507483
0.00509762
0.00512005
0.00514213
0.00516387
0.00518528
0.00520636
0.00522712
0.00524757
0.0052677
0.00528753
0.00530705
0.00532628
0.0053452
0.00536384
0.00538217
0.00540022
0.00541798
0.00543544
0.00545262
0.00546951
0.00548611
0.00550241
0.00551843
0.00553415
0.00554958
0.00556472
0.00557956
0.0055941
0.00560834
0.00562227
0.0056359
0.00564922
0.00566223
0.00567492
0.0056873
0.00569935
0.00571108
0.00572248
0.00573354
0.00574427
0.00575465
0.00576469
0.00577438
0.00578371
0.00579268
0.00580128
0.00580952
0.00581737
0.00582485
0.00583194
0.00583863
0.00584493
0.00585082
0.0058563
0.00586136
0.005866
0.00587021
0.00587397
0.0058773
0.00588017
0.00588258
0.00588453
0.005886
0.00588699
0.00588749
0.00252834
0.00145972
0.00120762
0.00131096
0.00154473
0.00179744
0.00203063
0.0022378
0.00242152
0.00258572
0.0027338
0.00286846
0.00299175
0.00310528
0.00321035
0.00330799
0.00339906
0.00348428
0.00356428
0.00363957
0.00371063
0.00377784
0.00384157
0.00390212
0.00395977
0.00401476
0.00406731
0.00411762
0.00416586
0.00421219
0.00425676
0.00429968
0.00434109
0.00438108
0.00441976
0.00445721
0.00449351
0.00452874
0.00456296
0.00459623
0.00462862
0.00466018
0.00469095
0.00472098
0.0047503
0.00477897
0.00480701
0.00483445
0.00486133
0.00488767
0.0049135
0.00493884
0.00496371
0.00498813
0.00501213
0.00503571
0.00505889
0.0050817
0.00510413
0.00512621
0.00514794
0.00516934
0.00519041
0.00521116
0.0052316
0.00525173
0.00527157
0.00529111
0.00531036
0.00532933
0.00534802
0.00536643
0.00538457
0.00540243
0.00542002
0.00543734
0.0054544
0.00547118
0.00548769
0.00550394
0.00551991
0.00553562
0.00555105
0.00556621
0.0055811
0.00559571
0.00561004
0.00562409
0.00563786
0.00565134
0.00566453
0.00567743
0.00569004
0.00570234
0.00571434
0.00572604
0.00573742
0.0057485
0.00575925
0.00576967
0.00577977
0.00578954
0.00579897
0.00580806
0.00581679
0.00582518
0.0058332
0.00584087
0.00584816
0.00585507
0.00586161
0.00586775
0.00587351
0.00587886
0.0058838
0.00588833
0.00589244
0.00589613
0.00589938
0.00590218
0.00590454
0.00590644
0.00590788
0.00590885
0.00590934
0.00265372
0.00152792
0.00126839
0.00138145
0.00162672
0.00188762
0.00212573
0.00233562
0.00252067
0.00268537
0.00283346
0.00296781
0.00309063
0.00320358
0.00330799
0.00340491
0.00349522
0.00357963
0.00365878
0.00373318
0.0038033
0.00386954
0.00393225
0.00399174
0.00404829
0.00410215
0.00415354
0.00420265
0.00424966
0.00429474
0.00433803
0.00437966
0.00441975
0.00445841
0.00449574
0.00453183
0.00456677
0.00460062
0.00463346
0.00466536
0.00469637
0.00472655
0.00475594
0.0047846
0.00481256
0.00483987
0.00486655
0.00489266
0.00491821
0.00494323
0.00496776
0.00499181
0.00501541
0.00503857
0.00506133
0.00508369
0.00510568
0.0051273
0.00514857
0.0051695
0.00519011
0.0052104
0.00523038
0.00525007
0.00526947
0.00528859
0.00530743
0.005326
0.0053443
0.00536234
0.00538013
0.00539765
0.00541493
0.00543195
0.00544872
0.00546525
0.00548153
0.00549756
0.00551334
0.00552888
0.00554417
0.00555921
0.00557399
0.00558853
0.00560281
0.00561683
0.0056306
0.0056441
0.00565734
0.00567032
0.00568302
0.00569545
0.0057076
0.00571946
0.00573105
0.00574234
0.00575334
0.00576404
0.00577443
0.00578452
0.0057943
0.00580376
0.00581289
0.0058217
0.00583017
0.0058383
0.00584609
0.00585353
0.00586061
0.00586733
0.00587367
0.00587965
0.00588524
0.00589044
0.00589525
0.00589966
0.00590366
0.00590725
0.00591041
0.00591314
0.00591544
0.00591729
0.00591869
0.00591964
0.00592011
0.00277325
0.00159277
0.0013264
0.00144873
0.00170473
0.00197312
0.00221566
0.0024279
0.00261403
0.00277902
0.00292694
0.00306087
0.0031831
0.00329538
0.00339906
0.00349522
0.00358473
0.00366832
0.00374662
0.00382014
0.00388935
0.00395464
0.00401637
0.00407485
0.00413035
0.00418312
0.00423339
0.00428135
0.00432718
0.00437105
0.0044131
0.00445347
0.00449228
0.00452965
0.00456566
0.00460042
0.00463401
0.00466651
0.00469798
0.00472851
0.00475815
0.00478695
0.00481496
0.00484224
0.00486883
0.00489477
0.00492009
0.00494483
0.00496903
0.00499272
0.00501591
0.00503864
0.00506094
0.00508281
0.00510429
0.00512539
0.00514612
0.00516651
0.00518657
0.00520631
0.00522574
0.00524488
0.00526373
0.0052823
0.00530061
0.00531865
0.00533644
0.00535397
0.00537127
0.00538832
0.00540513
0.00542172
0.00543807
0.00545419
0.00547009
0.00548576
0.00550121
0.00551643
0.00553142
0.00554619
0.00556073
0.00557505
0.00558913
0.00560299
0.00561661
0.00562999
0.00564314
0.00565604
0.00566871
0.00568112
0.00569328
0.00570519
0.00571684
0.00572822
0.00573934
0.00575019
0.00576076
0.00577104
0.00578105
0.00579076
0.00580017
0.00580929
0.00581809
0.00582659
0.00583476
0.00584261
0.00585014
0.00585732
0.00586417
0.00587066
0.0058768
0.00588258
0.00588799
0.00589303
0.00589769
0.00590196
0.00590583
0.00590931
0.00591237
0.00591502
0.00591725
0.00591905
0.0059204
0.00592132
0.00592178
0.00288735
0.00165456
0.00138183
0.00151306
0.00177909
0.00205437
0.0023009
0.0025152
0.00270219
0.00286731
0.00301493
0.00314831
0.00326987
0.00338139
0.00348428
0.00357963
0.00366832
0.00375108
0.00382853
0.00390119
0.00396951
0.00403389
0.00409468
0.00415218
0.00420668
0.00425842
0.00430762
0.00435448
0.00439919
0.0044419
0.00448277
0.00452193
0.00455951
0.00459561
0.00463035
0.00466382
0.0046961
0.00472728
0.00475743
0.00478661
0.00481489
0.00484234
0.00486899
0.0048949
0.00492013
0.0049447
0.00496866
0.00499204
0.00501488
0.00503722
0.00505907
0.00508047
0.00510144
0.005122
0.00514218
0.00516198
0.00518145
0.00520058
0.00521939
0.0052379
0.00525612
0.00527406
0.00529173
0.00530915
0.00532631
0.00534323
0.00535992
0.00537638
0.00539261
0.00540863
0.00542443
0.00544002
0.0054554
0.00547057
0.00548554
0.0055003
0.00551486
0.00552922
0.00554337
0.00555732
0.00557107
0.00558461
0.00559794
0.00561106
0.00562397
0.00563667
0.00564915
0.0056614
0.00567344
0.00568525
0.00569683
0.00570817
0.00571927
0.00573013
0.00574074
0.0057511
0.0057612
0.00577104
0.00578061
0.00578991
0.00579893
0.00580767
0.00581611
0.00582427
0.00583211
0.00583966
0.00584688
0.00585379
0.00586038
0.00586663
0.00587254
0.0058781
0.00588332
0.00588817
0.00589266
0.00589678
0.00590051
0.00590386
0.00590682
0.00590938
0.00591153
0.00591326
0.00591457
0.00591545
0.0059159
0.00299645
0.00171352
0.00143489
0.00157464
0.00185008
0.00213174
0.00238191
0.00259802
0.00278568
0.00295079
0.003098
0.00323074
0.00335153
0.00346223
0.00356428
0.00365878
0.00374662
0.00382853
0.00390513
0.00397693
0.00404438
0.00410788
0.00416776
0.00422433
0.00427788
0.00432863
0.00437682
0.00442265
0.00446628
0.0045079
0.00454764
0.00458565
0.00462206
0.00465696
0.00469048
0.00472271
0.00475373
0.00478363
0.00481248
0.00484036
0.00486733
0.00489344
0.00491876
0.00494334
0.00496722
0.00499044
0.00501305
0.00503509
0.00505658
0.00507757
0.00509808
0.00511815
0.00513779
0.00515703
0.00517589
0.0051944
0.00521257
0.00523042
0.00524797
0.00526522
0.00528221
0.00529893
0.00531539
0.00533162
0.00534761
0.00536338
0.00537893
0.00539427
0.00540941
0.00542435
0.00543909
0.00545364
0.00546801
0.00548218
0.00549618
0.00550999
0.00552362
0.00553707
0.00555033
0.00556342
0.00557632
0.00558904
0.00560157
0.00561392
0.00562607
0.00563804
0.00564981
0.00566137
0.00567274
0.0056839
0.00569485
0.00570559
0.00571611
0.0057264
0.00573647
0.0057463
0.0057559
0.00576525
0.00577436
0.00578321
0.0057918
0.00580013
0.00580818
0.00581596
0.00582346
0.00583066
0.00583757
0.00584418
0.00585047
0.00585646
0.00586212
0.00586745
0.00587245
0.0058771
0.0058814
0.00588535
0.00588894
0.00589215
0.00589499
0.00589745
0.00589951
0.00590118
0.00590244
0.00590328
0.00590371
0.00310091
0.00176989
0.00148577
0.00163369
0.00191799
0.00220557
0.00245907
0.00267678
0.00286497
0.00302995
0.00317664
0.00330865
0.0034286
0.00353842
0.00363957
0.00373318
0.00382014
0.00390119
0.00397693
0.00404788
0.00411448
0.00417711
0.00423612
0.0042918
0.00434444
0.00439426
0.00444149
0.00448633
0.00452896
0.00456954
0.00460822
0.00464514
0.00468042
0.00471419
0.00474654
0.00477758
0.0048074
0.00483607
0.00486368
0.00489031
0.004916
0.00494083
0.00496486
0.00498812
0.00501069
0.00503259
0.00505388
0.00507459
0.00509476
0.00511442
0.0051336
0.00515234
0.00517066
0.00518858
0.00520614
0.00522334
0.00524021
0.00525678
0.00527305
0.00528904
0.00530477
0.00532025
0.00533549
0.00535051
0.00536531
0.0053799
0.00539428
0.00540848
0.00542249
0.00543632
0.00544997
0.00546345
0.00547677
0.00548991
0.0055029
0.00551572
0.00552838
0.00554088
0.00555322
0.0055654
0.00557742
0.00558928
0.00560097
0.0056125
0.00562386
0.00563505
0.00564607
0.00565691
0.00566756
0.00567804
0.00568832
0.00569842
0.00570831
0.00571801
0.00572749
0.00573677
0.00574582
0.00575466
0.00576327
0.00577164
0.00577977
0.00578766
0.00579529
0.00580267
0.00580978
0.00581663
0.00582319
0.00582947
0.00583546
0.00584115
0.00584654
0.00585162
0.00585638
0.00586082
0.00586493
0.00586869
0.00587212
0.00587519
0.0058779
0.00588024
0.00588221
0.0058838
0.00588501
0.00588582
0.00588622
0.00320107
0.00182387
0.00153463
0.00169041
0.00198307
0.00227617
0.00253273
0.00275186
0.00294045
0.0031052
0.0032513
0.00338251
0.00350155
0.00361043
0.00371063
0.0038033
0.00388935
0.00396951
0.00404438
0.00411448
0.00418023
0.00424202
0.00430018
0.00435501
0.00440677
0.00445571
0.00450203
0.00454594
0.00458761
0.00462721
0.00466489
0.00470078
0.00473501
0.00476769
0.00479894
0.00482885
0.00485752
0.00488503
0.00491145
0.00493686
0.00496134
0.00498493
0.0050077
0.00502971
0.005051
0.00507162
0.00509162
0.00511103
0.0051299
0.00514825
0.00516613
0.00518356
0.00520058
0.0052172
0.00523345
0.00524936
0.00526494
0.00528022
0.00529522
0.00530994
0.00532441
0.00533865
0.00535265
0.00536644
0.00538003
0.00539342
0.00540663
0.00541966
0.00543252
0.00544522
0.00545776
0.00547014
0.00548237
0.00549446
0.0055064
0.0055182
0.00552987
0.00554139
0.00555277
0.00556401
0.00557511
0.00558607
0.00559689
0.00560757
0.0056181
0.00562848
0.0056387
0.00564878
0.00565869
0.00566844
0.00567803
0.00568744
0.00569668
0.00570574
0.00571461
0.00572329
0.00573177
0.00574006
0.00574814
0.005756
0.00576364
0.00577106
0.00577825
0.0057852
0.00579191
0.00579836
0.00580456
0.00581049
0.00581615
0.00582153
0.00582663
0.00583144
0.00583595
0.00584015
0.00584405
0.00584762
0.00585086
0.00585378
0.00585635
0.00585857
0.00586045
0.00586196
0.0058631
0.00586387
0.00586426
0.00329725
0.00187565
0.00158162
0.00174497
0.00204553
0.0023438
0.00260318
0.00282359
0.00301247
0.00317691
0.00332234
0.00345268
0.00357076
0.00367864
0.00377784
0.00386954
0.00395464
0.00403389
0.00410788
0.00417711
0.00424202
0.00430297
0.00436031
0.00441431
0.00446523
0.00451332
0.00455878
0.00460181
0.00464258
0.00468125
0.00471798
0.0047529
0.00478613
0.0048178
0.004848
0.00487685
0.00490442
0.00493082
0.00495611
0.00498037
0.00500367
0.00502608
0.00504765
0.00506844
0.0050885