/*--------------------------------*- C++ -*----------------------------------*\
| =========                 |                                                 |
| \\      /  F ield         | OpenFOAM: The Open Source CFD Toolbox           |
|  \\    /   O peration     | Version:  4.x                                   |
|   \\  /    A nd           | Web:      www.OpenFOAM.org                      |
|    \\/     M anipulation  |                                                 |
\*---------------------------------------------------------------------------*/
FoamFile
{
    version     2.0;
    format      ascii;
    class       volScalarField;
    location    "97.86";
    object      nut;
}
// * * * * * * * * * * * * * * * * * * * * * * * * * * * * * * * * * * * * * //

dimensions      [0 2 -1 0 0 0 0];

internalField   nonuniform List<scalar> 
15625
(
1.35326e-05
1.42463e-05
1.55714e-05
1.72156e-05
1.89548e-05
2.06614e-05
2.22746e-05
2.37706e-05
2.51452e-05
2.64035e-05
2.75547e-05
2.86095e-05
2.95785e-05
3.04715e-05
3.12974e-05
3.20641e-05
3.27782e-05
3.34458e-05
3.40718e-05
3.46605e-05
3.52159e-05
3.5741e-05
3.62388e-05
3.67116e-05
3.71616e-05
3.75908e-05
3.80007e-05
3.83929e-05
3.87687e-05
3.91292e-05
3.94755e-05
3.98086e-05
4.01292e-05
4.04383e-05
4.07364e-05
4.10243e-05
4.13024e-05
4.15715e-05
4.18318e-05
4.2084e-05
4.23284e-05
4.25654e-05
4.27953e-05
4.30186e-05
4.32354e-05
4.34461e-05
4.3651e-05
4.38503e-05
4.40442e-05
4.42329e-05
4.44167e-05
4.45958e-05
4.47703e-05
4.49403e-05
4.51061e-05
4.52678e-05
4.54256e-05
4.55795e-05
4.57296e-05
4.58762e-05
4.60193e-05
4.61591e-05
4.62955e-05
4.64288e-05
4.65589e-05
4.66861e-05
4.68103e-05
4.69316e-05
4.70502e-05
4.7166e-05
4.72792e-05
4.73897e-05
4.74977e-05
4.76032e-05
4.77063e-05
4.78069e-05
4.79053e-05
4.80013e-05
4.8095e-05
4.81865e-05
4.82758e-05
4.83629e-05
4.84479e-05
4.85308e-05
4.86116e-05
4.86904e-05
4.87671e-05
4.88418e-05
4.89145e-05
4.89853e-05
4.90541e-05
4.9121e-05
4.91859e-05
4.9249e-05
4.93101e-05
4.93694e-05
4.94267e-05
4.94822e-05
4.95358e-05
4.95876e-05
4.96374e-05
4.96855e-05
4.97316e-05
4.97759e-05
4.98183e-05
4.98588e-05
4.98975e-05
4.99343e-05
4.99692e-05
5.00021e-05
5.00332e-05
5.00623e-05
5.00895e-05
5.01148e-05
5.0138e-05
5.01593e-05
5.01786e-05
5.01958e-05
5.0211e-05
5.02241e-05
5.0235e-05
5.02439e-05
5.02506e-05
5.02551e-05
5.02574e-05
1.42463e-05
1.42195e-05
1.47214e-05
1.55278e-05
1.66159e-05
1.78736e-05
1.91845e-05
2.04717e-05
2.16944e-05
2.28351e-05
2.38901e-05
2.48625e-05
2.57585e-05
2.65857e-05
2.73515e-05
2.80629e-05
2.87261e-05
2.93465e-05
2.99289e-05
3.04774e-05
3.09956e-05
3.14865e-05
3.19527e-05
3.23966e-05
3.282e-05
3.32249e-05
3.36127e-05
3.39847e-05
3.43422e-05
3.46862e-05
3.50178e-05
3.53377e-05
3.56467e-05
3.59455e-05
3.62348e-05
3.6515e-05
3.67869e-05
3.70507e-05
3.7307e-05
3.75561e-05
3.77984e-05
3.80343e-05
3.8264e-05
3.84879e-05
3.87062e-05
3.89192e-05
3.9127e-05
3.93299e-05
3.95281e-05
3.97218e-05
3.99112e-05
4.00963e-05
4.02774e-05
4.04546e-05
4.0628e-05
4.07978e-05
4.0964e-05
4.11268e-05
4.12863e-05
4.14425e-05
4.15955e-05
4.17455e-05
4.18926e-05
4.20366e-05
4.21779e-05
4.23163e-05
4.24521e-05
4.25851e-05
4.27156e-05
4.28434e-05
4.29688e-05
4.30917e-05
4.32121e-05
4.33301e-05
4.34458e-05
4.35591e-05
4.36701e-05
4.37788e-05
4.38853e-05
4.39895e-05
4.40916e-05
4.41914e-05
4.42891e-05
4.43846e-05
4.4478e-05
4.45692e-05
4.46583e-05
4.47453e-05
4.48302e-05
4.4913e-05
4.49937e-05
4.50724e-05
4.51489e-05
4.52233e-05
4.52957e-05
4.53659e-05
4.54341e-05
4.55001e-05
4.55641e-05
4.56259e-05
4.56856e-05
4.57432e-05
4.57986e-05
4.58519e-05
4.5903e-05
4.59519e-05
4.59987e-05
4.60432e-05
4.60854e-05
4.61254e-05
4.61631e-05
4.61986e-05
4.62317e-05
4.62624e-05
4.62908e-05
4.63167e-05
4.63402e-05
4.63613e-05
4.63798e-05
4.63959e-05
4.64093e-05
4.64201e-05
4.64283e-05
4.64338e-05
4.64366e-05
1.55714e-05
1.47214e-05
1.56006e-05
1.71113e-05
1.89014e-05
2.09066e-05
2.30334e-05
2.51774e-05
2.72616e-05
2.92421e-05
3.10996e-05
3.28302e-05
3.44385e-05
3.59335e-05
3.73253e-05
3.86243e-05
3.98405e-05
4.09825e-05
4.20582e-05
4.30745e-05
4.40375e-05
4.49522e-05
4.58234e-05
4.6655e-05
4.74504e-05
4.82128e-05
4.89448e-05
4.96489e-05
5.03272e-05
5.09815e-05
5.16137e-05
5.22252e-05
5.28173e-05
5.33915e-05
5.39486e-05
5.44899e-05
5.50161e-05
5.55283e-05
5.6027e-05
5.65131e-05
5.69872e-05
5.745e-05
5.79018e-05
5.83433e-05
5.87749e-05
5.91971e-05
5.96102e-05
6.00147e-05
6.04108e-05
6.07989e-05
6.11792e-05
6.15522e-05
6.19179e-05
6.22767e-05
6.26288e-05
6.29743e-05
6.33135e-05
6.36465e-05
6.39736e-05
6.42948e-05
6.46103e-05
6.49202e-05
6.52247e-05
6.55239e-05
6.58178e-05
6.61067e-05
6.63905e-05
6.66693e-05
6.69433e-05
6.72125e-05
6.74769e-05
6.77367e-05
6.79919e-05
6.82425e-05
6.84885e-05
6.87301e-05
6.89673e-05
6.92e-05
6.94283e-05
6.96523e-05
6.9872e-05
7.00873e-05
7.02983e-05
7.0505e-05
7.07074e-05
7.09055e-05
7.10993e-05
7.12888e-05
7.1474e-05
7.16549e-05
7.18315e-05
7.20038e-05
7.21717e-05
7.23353e-05
7.24945e-05
7.26492e-05
7.27996e-05
7.29455e-05
7.30869e-05
7.32237e-05
7.3356e-05
7.34838e-05
7.36068e-05
7.37253e-05
7.38389e-05
7.39479e-05
7.4052e-05
7.41512e-05
7.42455e-05
7.43349e-05
7.44192e-05
7.44984e-05
7.45725e-05
7.46413e-05
7.47048e-05
7.4763e-05
7.48157e-05
7.4863e-05
7.49046e-05
7.49406e-05
7.49707e-05
7.49951e-05
7.50135e-05
7.50259e-05
7.50321e-05
1.72156e-05
1.55278e-05
1.71113e-05
2.08941e-05
2.56759e-05
3.07608e-05
3.58632e-05
4.08272e-05
4.55502e-05
4.99751e-05
5.40816e-05
5.78741e-05
6.13709e-05
6.45969e-05
6.75786e-05
7.03417e-05
7.291e-05
7.5305e-05
7.75454e-05
7.96477e-05
8.16264e-05
8.34939e-05
8.52612e-05
8.6938e-05
8.85325e-05
9.00521e-05
9.15033e-05
9.2892e-05
9.42231e-05
9.55012e-05
9.67305e-05
9.79144e-05
9.90564e-05
0.000100159
0.000101226
0.000102258
0.000103259
0.00010423
0.000105173
0.000106089
0.000106981
0.000107849
0.000108695
0.00010952
0.000110325
0.000111111
0.000111879
0.000112629
0.000113364
0.000114082
0.000114785
0.000115474
0.000116149
0.00011681
0.000117459
0.000118095
0.000118719
0.000119331
0.000119932
0.000120522
0.000121101
0.00012167
0.000122228
0.000122777
0.000123316
0.000123846
0.000124366
0.000124877
0.000125379
0.000125873
0.000126357
0.000126834
0.000127301
0.000127761
0.000128212
0.000128655
0.00012909
0.000129517
0.000129936
0.000130346
0.00013075
0.000131145
0.000131532
0.000131912
0.000132283
0.000132647
0.000133003
0.000133351
0.000133692
0.000134025
0.000134349
0.000134666
0.000134975
0.000135276
0.000135569
0.000135854
0.000136131
0.000136399
0.00013666
0.000136912
0.000137156
0.000137391
0.000137618
0.000137836
0.000138046
0.000138247
0.000138439
0.000138622
0.000138796
0.000138961
0.000139117
0.000139263
0.0001394
0.000139527
0.000139644
0.000139752
0.000139849
0.000139936
0.000140013
0.00014008
0.000140135
0.00014018
0.000140214
0.000140237
0.000140249
1.89548e-05
1.66159e-05
1.89014e-05
2.56759e-05
3.56795e-05
4.69458e-05
5.81457e-05
6.87027e-05
7.84204e-05
8.72636e-05
9.52686e-05
0.000102503
0.000109047
0.000114978
0.000120371
0.000125293
0.000129801
0.000133946
0.000137771
0.000141315
0.000144608
0.00014768
0.000150554
0.00015325
0.000155788
0.000158182
0.000160446
0.000162593
0.000164633
0.000166576
0.00016843
0.000170202
0.0001719
0.000173528
0.000175093
0.000176599
0.000178051
0.000179452
0.000180806
0.000182117
0.000183386
0.000184617
0.000185813
0.000186974
0.000188104
0.000189204
0.000190276
0.000191322
0.000192342
0.000193339
0.000194312
0.000195264
0.000196196
0.000197108
0.000198
0.000198875
0.000199733
0.000200574
0.000201398
0.000202208
0.000203002
0.000203782
0.000204547
0.000205299
0.000206038
0.000206764
0.000207477
0.000208177
0.000208866
0.000209542
0.000210207
0.00021086
0.000211502
0.000212133
0.000212753
0.000213362
0.00021396
0.000214547
0.000215123
0.000215689
0.000216245
0.000216789
0.000217324
0.000217848
0.000218361
0.000218864
0.000219356
0.000219838
0.000220309
0.00022077
0.00022122
0.000221659
0.000222088
0.000222506
0.000222913
0.000223309
0.000223693
0.000224067
0.00022443
0.000224781
0.000225121
0.000225449
0.000225765
0.00022607
0.000226363
0.000226643
0.000226912
0.000227167
0.000227411
0.000227641
0.000227859
0.000228064
0.000228255
0.000228433
0.000228598
0.000228748
0.000228885
0.000229007
0.000229115
0.000229208
0.000229286
0.000229349
0.000229397
0.000229429
0.000229445
2.06614e-05
1.78736e-05
2.09066e-05
3.07608e-05
4.69458e-05
6.64235e-05
8.61531e-05
0.000104581
0.000121218
0.000136042
0.000149196
0.000160871
0.000171255
0.000180521
0.000188823
0.00019629
0.000203036
0.000209155
0.000214728
0.000219823
0.000224499
0.000228806
0.000232786
0.000236477
0.00023991
0.000243112
0.000246108
0.000248919
0.000251564
0.000254057
0.000256415
0.000258648
0.000260769
0.000262788
0.000264713
0.000266552
0.000268313
0.000270001
0.000271623
0.000273184
0.000274689
0.000276141
0.000277544
0.000278903
0.000280219
0.000281497
0.000282738
0.000283946
0.000285121
0.000286266
0.000287383
0.000288474
0.00028954
0.000290582
0.000291601
0.0002926
0.000293578
0.000294537
0.000295477
0.0002964
0.000297305
0.000298195
0.000299069
0.000299927
0.000300771
0.000301601
0.000302417
0.000303219
0.000304009
0.000304785
0.000305549
0.000306301
0.00030704
0.000307767
0.000308483
0.000309186
0.000309878
0.000310559
0.000311227
0.000311885
0.000312531
0.000313166
0.000313789
0.000314401
0.000315001
0.00031559
0.000316167
0.000316733
0.000317287
0.000317829
0.000318359
0.000318878
0.000319384
0.000319878
0.00032036
0.000320829
0.000321286
0.00032173
0.000322161
0.000322579
0.000322984
0.000323375
0.000323752
0.000324116
0.000324466
0.000324802
0.000325123
0.00032543
0.000325722
0.000325998
0.00032626
0.000326506
0.000326736
0.00032695
0.000327147
0.000327329
0.000327493
0.00032764
0.00032777
0.000327882
0.000327977
0.000328053
0.00032811
0.000328149
0.000328168
2.22746e-05
1.91845e-05
2.30334e-05
3.58632e-05
5.81457e-05
8.61531e-05
0.000115154
0.000142392
0.000166905
0.000188596
0.000207686
0.000224484
0.000239294
0.000252395
0.000264025
0.00027439
0.000283663
0.000291992
0.0002995
0.000306294
0.000312462
0.000318082
0.000323219
0.000327928
0.00033226
0.000336257
0.000339954
0.000343384
0.000346575
0.000349551
0.000352335
0.000354945
0.000357398
0.00035971
0.000361893
0.00036396
0.000365921
0.000367786
0.000369563
0.000371261
0.000372885
0.000374442
0.000375937
0.000377377
0.000378764
0.000380104
0.0003814
0.000382656
0.000383873
0.000385057
0.000386208
0.000387329
0.000388422
0.000389489
0.000390532
0.000391552
0.000392551
0.000393529
0.000394489
0.000395431
0.000396356
0.000397265
0.000398158
0.000399037
0.000399901
0.000400752
0.00040159
0.000402416
0.000403229
0.00040403
0.00040482
0.000405598
0.000406365
0.000407121
0.000407866
0.0004086
0.000409324
0.000410037
0.000410739
0.00041143
0.000412111
0.000412782
0.000413441
0.00041409
0.000414728
0.000415355
0.00041597
0.000416575
0.000417168
0.00041775
0.00041832
0.000418878
0.000419424
0.000419957
0.000420479
0.000420987
0.000421483
0.000421966
0.000422435
0.000422891
0.000423333
0.00042376
0.000424174
0.000424573
0.000424957
0.000425325
0.000425679
0.000426016
0.000426338
0.000426643
0.000426932
0.000427203
0.000427458
0.000427695
0.000427914
0.000428114
0.000428297
0.00042846
0.000428604
0.000428729
0.000428834
0.000428918
0.000428982
0.000429025
0.000429047
2.37706e-05
2.04717e-05
2.51774e-05
4.08272e-05
6.87027e-05
0.000104581
0.000142392
0.000178309
0.000210836
0.000239707
0.000265139
0.000287505
0.000307195
0.000324568
0.00033994
0.000353585
0.000365734
0.000376586
0.000386308
0.000395045
0.000402918
0.000410034
0.000416483
0.000422342
0.00042768
0.000432556
0.00043702
0.000441118
0.000444888
0.000448367
0.000451583
0.000454564
0.000457333
0.000459913
0.000462322
0.000464576
0.000466691
0.00046868
0.000470555
0.000472327
0.000474005
0.000475599
0.000477115
0.000478562
0.000479945
0.000481271
0.000482543
0.000483768
0.000484949
0.00048609
0.000487195
0.000488266
0.000489306
0.000490319
0.000491306
0.000492269
0.000493211
0.000494132
0.000495035
0.000495921
0.00049679
0.000497645
0.000498486
0.000499314
0.00050013
0.000500934
0.000501727
0.000502509
0.000503281
0.000504044
0.000504798
0.000505542
0.000506278
0.000507004
0.000507723
0.000508433
0.000509134
0.000509827
0.000510512
0.000511188
0.000511855
0.000512514
0.000513164
0.000513806
0.000514438
0.000515061
0.000515675
0.000516279
0.000516873
0.000517457
0.000518031
0.000518594
0.000519146
0.000519688
0.000520217
0.000520735
0.000521241
0.000521735
0.000522216
0.000522684
0.000523138
0.000523579
0.000524005
0.000524418
0.000524815
0.000525198
0.000525565
0.000525916
0.000526251
0.000526569
0.00052687
0.000527154
0.00052742
0.000527668
0.000527898
0.000528108
0.000528299
0.000528471
0.000528622
0.000528753
0.000528864
0.000528952
0.00052902
0.000529065
0.000529088
2.51452e-05
2.16944e-05
2.72616e-05
4.55502e-05
7.84204e-05
0.000121218
0.000166905
0.000210836
0.000251031
0.000286992
0.000318862
0.000347013
0.000371873
0.000393851
0.000413317
0.000430595
0.000445967
0.000459673
0.000471923
0.000482895
0.000492744
0.000501602
0.000509586
0.000516796
0.000523319
0.000529233
0.000534603
0.000539489
0.000543942
0.000548009
0.00055173
0.00055514
0.000558273
0.000561155
0.000563813
0.000566269
0.000568543
0.000570653
0.000572617
0.000574447
0.000576157
0.00057776
0.000579265
0.000580683
0.000582021
0.000583288
0.000584491
0.000585636
0.000586728
0.000587774
0.000588777
0.000589742
0.000590672
0.000591572
0.000592444
0.000593291
0.000594115
0.000594919
0.000595705
0.000596474
0.000597228
0.00059797
0.000598699
0.000599417
0.000600125
0.000600825
0.000601516
0.000602199
0.000602875
0.000603545
0.000604209
0.000604867
0.000605519
0.000606166
0.000606807
0.000607444
0.000608075
0.000608702
0.000609323
0.000609939
0.000610549
0.000611155
0.000611754
0.000612348
0.000612935
0.000613516
0.00061409
0.000614658
0.000615218
0.000615771
0.000616315
0.000616852
0.00061738
0.000617898
0.000618408
0.000618907
0.000619396
0.000619875
0.000620343
0.000620799
0.000621243
0.000621675
0.000622093
0.000622499
0.000622891
0.000623269
0.000623632
0.00062398
0.000624313
0.00062463
0.00062493
0.000625213
0.000625479
0.000625727
0.000625957
0.000626168
0.00062636
0.000626532
0.000626684
0.000626816
0.000626927
0.000627017
0.000627084
0.00062713
0.000627153
2.64035e-05
2.28351e-05
2.92421e-05
4.99751e-05
8.72636e-05
0.000136042
0.000188596
0.000239707
0.000286992
0.000329713
0.000367889
0.000401845
0.000432001
0.000458783
0.00048259
0.000503779
0.000522666
0.000539525
0.000554599
0.000568095
0.000580196
0.000591061
0.000600828
0.00060962
0.000617542
0.000624691
0.000631147
0.000636984
0.000642268
0.000647056
0.000651399
0.000655343
0.000658928
0.000662191
0.000665165
0.000667878
0.000670357
0.000672625
0.000674704
0.000676612
0.000678367
0.000679983
0.000681477
0.000682858
0.00068414
0.000685332
0.000686444
0.000687485
0.00068846
0.000689379
0.000690247
0.000691069
0.00069185
0.000692596
0.00069331
0.000693996
0.000694658
0.000695298
0.00069592
0.000696525
0.000697116
0.000697695
0.000698263
0.000698823
0.000699374
0.00069992
0.00070046
0.000700995
0.000701527
0.000702056
0.000702582
0.000703106
0.000703629
0.00070415
0.00070467
0.000705189
0.000705706
0.000706223
0.000706739
0.000707253
0.000707766
0.000708278
0.000708788
0.000709295
0.000709801
0.000710304
0.000710804
0.0007113
0.000711793
0.000712282
0.000712766
0.000713245
0.000713719
0.000714186
0.000714647
0.000715101
0.000715548
0.000715987
0.000716417
0.000716838
0.000717249
0.000717651
0.000718041
0.000718421
0.000718789
0.000719144
0.000719486
0.000719816
0.000720131
0.000720431
0.000720717
0.000720987
0.000721241
0.000721478
0.000721699
0.000721901
0.000722086
0.000722251
0.000722398
0.000722525
0.000722632
0.000722718
0.000722784
0.000722828
0.00072285
2.75547e-05
2.38901e-05
3.10996e-05
5.40816e-05
9.52686e-05
0.000149196
0.000207686
0.000265139
0.000318862
0.000367889
0.000412098
0.00045173
0.000487168
0.000518828
0.000547114
0.000572399
0.000595017
0.000615267
0.000633413
0.000649687
0.000664294
0.000677414
0.000689208
0.000699815
0.00070936
0.000717953
0.000725693
0.000732667
0.000738953
0.00074462
0.00074973
0.000754339
0.000758497
0.000762249
0.000765634
0.00076869
0.000771449
0.00077394
0.000776191
0.000778224
0.000780063
0.000781726
0.000783231
0.000784595
0.000785833
0.000786956
0.000787979
0.00078891
0.000789761
0.000790541
0.000791257
0.000791916
0.000792526
0.000793093
0.000793622
0.000794117
0.000794585
0.000795027
0.000795449
0.000795853
0.000796242
0.000796619
0.000796987
0.000797347
0.000797701
0.00079805
0.000798397
0.000798743
0.000799088
0.000799433
0.00079978
0.000800128
0.000800479
0.000800833
0.000801189
0.000801549
0.000801913
0.00080228
0.000802651
0.000803025
0.000803402
0.000803783
0.000804166
0.000804552
0.00080494
0.00080533
0.000805722
0.000806114
0.000806508
0.000806901
0.000807294
0.000807686
0.000808076
0.000808464
0.00080885
0.000809232
0.000809611
0.000809985
0.000810354
0.000810717
0.000811074
0.000811423
0.000811765
0.000812099
0.000812424
0.000812739
0.000813044
0.000813338
0.00081362
0.000813891
0.000814148
0.000814392
0.000814623
0.000814838
0.000815039
0.000815224
0.000815392
0.000815544
0.000815679
0.000815795
0.000815893
0.000815973
0.000816033
0.000816074
0.000816094
2.86095e-05
2.48625e-05
3.28302e-05
5.78741e-05
0.000102503
0.000160871
0.000224484
0.000287505
0.000347013
0.000401845
0.00045173
0.000496813
0.000537417
0.000573927
0.000606733
0.000636209
0.000662696
0.000686505
0.000707913
0.000727171
0.000744499
0.000760094
0.000774133
0.000786772
0.000798152
0.000808397
0.000817619
0.000825918
0.000833385
0.0008401
0.000846136
0.000851559
0.000856427
0.000860794
0.000864708
0.000868213
0.000871349
0.00087415
0.000876651
0.000878879
0.000880862
0.000882624
0.000884188
0.000885573
0.000886797
0.000887878
0.000888831
0.000889668
0.000890404
0.000891048
0.000891613
0.000892106
0.000892537
0.000892913
0.000893241
0.000893529
0.000893781
0.000894004
0.000894201
0.000894377
0.000894536
0.000894682
0.000894817
0.000894945
0.000895067
0.000895186
0.000895305
0.000895424
0.000895545
0.00089567
0.0008958
0.000895935
0.000896076
0.000896224
0.00089638
0.000896544
0.000896716
0.000896897
0.000897085
0.000897283
0.000897488
0.000897702
0.000897924
0.000898154
0.000898391
0.000898635
0.000898885
0.000899142
0.000899404
0.000899671
0.000899943
0.000900218
0.000900497
0.000900779
0.000901062
0.000901346
0.000901631
0.000901916
0.0009022
0.000902482
0.000902762
0.000903039
0.000903312
0.00090358
0.000903843
0.0009041
0.00090435
0.000904593
0.000904828
0.000905053
0.000905269
0.000905475
0.00090567
0.000905853
0.000906023
0.000906181
0.000906326
0.000906456
0.000906572
0.000906672
0.000906757
0.000906826
0.000906878
0.000906913
0.000906931
2.95785e-05
2.57585e-05
3.44385e-05
6.13709e-05
0.000109047
0.000171255
0.000239294
0.000307195
0.000371873
0.000432001
0.000487168
0.000537417
0.000582999
0.000624253
0.000661545
0.000695233
0.000725656
0.000753127
0.00077793
0.000800324
0.000820542
0.000838792
0.000855264
0.000870127
0.000883533
0.00089562
0.000906511
0.000916318
0.000925143
0.000933076
0.0009402
0.00094659
0.000952314
0.000957433
0.000962005
0.000966078
0.000969701
0.000972915
0.000975759
0.000978267
0.000980473
0.000982404
0.000984088
0.000985549
0.000986809
0.000987889
0.000988808
0.000989581
0.000990226
0.000990755
0.000991182
0.000991518
0.000991775
0.000991963
0.000992089
0.000992163
0.000992192
0.000992182
0.00099214
0.000992072
0.000991982
0.000991874
0.000991754
0.000991624
0.000991488
0.00099135
0.00099121
0.000991073
0.00099094
0.000990812
0.000990692
0.000990581
0.00099048
0.000990389
0.00099031
0.000990243
0.00099019
0.000990149
0.000990122
0.000990109
0.000990109
0.000990122
0.00099015
0.00099019
0.000990243
0.000990309
0.000990387
0.000990477
0.000990577
0.000990689
0.00099081
0.000990941
0.00099108
0.000991227
0.000991381
0.000991542
0.000991708
0.000991879
0.000992055
0.000992233
0.000992414
0.000992597
0.000992781
0.000992964
0.000993146
0.000993327
0.000993506
0.000993681
0.000993852
0.000994018
0.000994179
0.000994333
0.00099448
0.000994619
0.00099475
0.000994871
0.000994983
0.000995084
0.000995174
0.000995253
0.000995319
0.000995373
0.000995414
0.000995442
0.000995456
3.04715e-05
2.65857e-05
3.59335e-05
6.45969e-05
0.000114978
0.000180521
0.000252395
0.000324568
0.000393851
0.000458783
0.000518828
0.000573927
0.000624253
0.000670094
0.000711777
0.000749638
0.000784005
0.000815184
0.00084346
0.000869094
0.000892326
0.000913371
0.000932428
0.000949674
0.000965272
0.000979369
0.000992098
0.00100358
0.00101393
0.00102324
0.00103161
0.00103912
0.00104585
0.00105186
0.00105723
0.00106199
0.00106622
0.00106996
0.00107325
0.00107614
0.00107865
0.00108084
0.00108272
0.00108432
0.00108568
0.00108681
0.00108775
0.0010885
0.00108909
0.00108954
0.00108985
0.00109006
0.00109016
0.00109017
0.0010901
0.00108997
0.00108978
0.00108953
0.00108925
0.00108893
0.00108858
0.0010882
0.00108781
0.00108741
0.00108699
0.00108658
0.00108616
0.00108574
0.00108533
0.00108492
0.00108452
0.00108414
0.00108376
0.0010834
0.00108306
0.00108273
0.00108242
0.00108213
0.00108186
0.0010816
0.00108136
0.00108115
0.00108095
0.00108077
0.00108061
0.00108046
0.00108034
0.00108023
0.00108014
0.00108007
0.00108001
0.00107997
0.00107994
0.00107993
0.00107992
0.00107994
0.00107996
0.00107999
0.00108004
0.00108009
0.00108015
0.00108022
0.00108029
0.00108037
0.00108045
0.00108054
0.00108063
0.00108072
0.00108081
0.0010809
0.00108099
0.00108108
0.00108117
0.00108125
0.00108133
0.00108141
0.00108148
0.00108154
0.0010816
0.00108165
0.0010817
0.00108173
0.00108176
0.00108178
0.00108179
3.12974e-05
2.73515e-05
3.73253e-05
6.75786e-05
0.000120371
0.000188823
0.000264025
0.00033994
0.000413317
0.00048259
0.000547114
0.000606733
0.000661545
0.000711777
0.000757714
0.000799665
0.000837935
0.000872821
0.000904602
0.000933536
0.000959864
0.000983805
0.00100556
0.00102532
0.00104325
0.0010595
0.00107421
0.00108752
0.00109955
0.00111039
0.00112016
0.00112893
0.0011368
0.00114385
0.00115013
0.00115572
0.00116068
0.00116506
0.00116891
0.00117227
0.0011752
0.00117772
0.00117988
0.00118171
0.00118324
0.00118449
0.0011855
0.00118629
0.00118688
0.00118728
0.00118753
0.00118763
0.0011876
0.00118746
0.00118722
0.0011869
0.00118649
0.00118602
0.0011855
0.00118493
0.00118432
0.00118367
0.001183
0.00118231
0.00118161
0.0011809
0.00118019
0.00117947
0.00117876
0.00117805
0.00117736
0.00117667
0.001176
0.00117535
0.00117471
0.0011741
0.0011735
0.00117293
0.00117238
0.00117185
0.00117135
0.00117087
0.00117042
0.00116999
0.00116958
0.0011692
0.00116885
0.00116852
0.00116821
0.00116792
0.00116766
0.00116741
0.00116719
0.00116699
0.00116681
0.00116665
0.0011665
0.00116638
0.00116626
0.00116617
0.00116608
0.00116602
0.00116596
0.00116591
0.00116588
0.00116585
0.00116583
0.00116583
0.00116582
0.00116583
0.00116583
0.00116584
0.00116586
0.00116588
0.0011659
0.00116592
0.00116594
0.00116596
0.00116597
0.00116599
0.00116601
0.00116602
0.00116603
0.00116604
0.00116604
3.20641e-05
2.80629e-05
3.86243e-05
7.03417e-05
0.000125293
0.00019629
0.00027439
0.000353585
0.000430595
0.000503779
0.000572399
0.000636209
0.000695233
0.000749638
0.000799665
0.000845585
0.000887683
0.000926238
0.000961516
0.000993771
0.00102324
0.00105014
0.00107468
0.00109705
0.00111741
0.00113593
0.00115276
0.00116803
0.00118186
0.00119437
0.00120567
0.00121584
0.00122499
0.0012332
0.00124054
0.00124708
0.00125288
0.00125802
0.00126254
0.00126649
0.00126993
0.00127289
0.00127542
0.00127756
0.00127933
0.00128078
0.00128194
0.00128282
0.00128346
0.00128388
0.0012841
0.00128414
0.00128403
0.00128377
0.00128338
0.00128289
0.0012823
0.00128162
0.00128087
0.00128005
0.00127919
0.00127828
0.00127733
0.00127636
0.00127536
0.00127435
0.00127333
0.0012723
0.00127128
0.00127026
0.00126924
0.00126824
0.00126726
0.00126629
0.00126534
0.00126441
0.00126351
0.00126263
0.00126178
0.00126096
0.00126017
0.0012594
0.00125866
0.00125796
0.00125728
0.00125664
0.00125602
0.00125544
0.00125488
0.00125436
0.00125386
0.00125339
0.00125295
0.00125254
0.00125215
0.00125179
0.00125145
0.00125114
0.00125085
0.00125058
0.00125034
0.00125011
0.0012499
0.00124971
0.00124954
0.00124939
0.00124925
0.00124912
0.00124901
0.0012489
0.00124881
0.00124873
0.00124867
0.0012486
0.00124855
0.00124851
0.00124847
0.00124843
0.00124841
0.00124838
0.00124837
0.00124835
0.00124834
0.00124833
0.00124833
3.27782e-05
2.87261e-05
3.98405e-05
7.291e-05
0.000129801
0.000203036
0.000283663
0.000365734
0.000445967
0.000522666
0.000595017
0.000662696
0.000725656
0.000784005
0.000837935
0.000887683
0.000933505
0.000975658
0.0010144
0.00104996
0.00108258
0.00111248
0.00113986
0.0011649
0.00118778
0.00120867
0.00122771
0.00124504
0.00126079
0.00127509
0.00128804
0.00129974
0.00131029
0.00131978
0.00132829
0.0013359
0.00134268
0.00134868
0.00135398
0.00135863
0.00136268
0.00136618
0.00136917
0.00137171
0.00137382
0.00137554
0.00137691
0.00137796
0.00137872
0.00137921
0.00137947
0.0013795
0.00137934
0.00137901
0.00137852
0.00137789
0.00137713
0.00137627
0.00137532
0.00137428
0.00137317
0.001372
0.00137079
0.00136953
0.00136824
0.00136693
0.0013656
0.00136426
0.00136291
0.00136157
0.00136023
0.0013589
0.00135758
0.00135628
0.001355
0.00135375
0.00135252
0.00135131
0.00135014
0.001349
0.00134789
0.00134681
0.00134577
0.00134476
0.00134379
0.00134286
0.00134196
0.0013411
0.00134027
0.00133948
0.00133872
0.00133801
0.00133732
0.00133667
0.00133606
0.00133547
0.00133492
0.0013344
0.00133391
0.00133345
0.00133302
0.00133261
0.00133223
0.00133188
0.00133155
0.00133125
0.00133097
0.00133071
0.00133047
0.00133025
0.00133005
0.00132986
0.0013297
0.00132955
0.00132941
0.00132929
0.00132918
0.00132909
0.00132901
0.00132894
0.00132888
0.00132884
0.0013288
0.00132878
0.00132877
3.34458e-05
2.93465e-05
4.09825e-05
7.5305e-05
0.000133946
0.000209155
0.000291992
0.000376586
0.000459673
0.000539525
0.000615267
0.000686505
0.000753127
0.000815184
0.000872821
0.000926238
0.000975658
0.00102132
0.00106345
0.00110229
0.00113805
0.00117096
0.0012012
0.00122896
0.00125441
0.00127773
0.00129906
0.00131855
0.00133632
0.0013525
0.0013672
0.00138054
0.0013926
0.00140349
0.00141329
0.00142208
0.00142993
0.00143692
0.0014431
0.00144855
0.00145332
0.00145745
0.00146101
0.00146403
0.00146656
0.00146865
0.00147031
0.00147161
0.00147255
0.00147318
0.00147353
0.00147361
0.00147346
0.0014731
0.00147254
0.00147182
0.00147094
0.00146993
0.00146879
0.00146756
0.00146623
0.00146482
0.00146335
0.00146182
0.00146025
0.00145864
0.00145701
0.00145535
0.00145369
0.00145201
0.00145034
0.00144867
0.00144701
0.00144537
0.00144375
0.00144215
0.00144057
0.00143903
0.00143751
0.00143603
0.00143459
0.00143318
0.00143181
0.00143048
0.00142919
0.00142794
0.00142674
0.00142557
0.00142445
0.00142337
0.00142234
0.00142135
0.00142039
0.00141948
0.00141862
0.00141779
0.001417
0.00141625
0.00141554
0.00141486
0.00141422
0.00141362
0.00141305
0.00141252
0.00141202
0.00141155
0.00141111
0.0014107
0.00141031
0.00140996
0.00140963
0.00140933
0.00140906
0.0014088
0.00140857
0.00140837
0.00140818
0.00140802
0.00140788
0.00140776
0.00140766
0.00140758
0.00140752
0.00140748
0.00140746
3.40718e-05
2.99289e-05
4.20582e-05
7.75454e-05
0.000137771
0.000214728
0.0002995
0.000386308
0.000471923
0.000554599
0.000633413
0.000707913
0.00077793
0.00084346
0.000904602
0.000961516
0.0010144
0.00106345
0.0011089
0.00115095
0.00118982
0.00122572
0.00125882
0.00128932
0.00131739
0.00134319
0.00136687
0.00138857
0.00140844
0.00142658
0.00144314
0.0014582
0.00147187
0.00148426
0.00149544
0.00150551
0.00151455
0.00152262
0.0015298
0.00153614
0.00154172
0.00154659
0.0015508
0.00155441
0.00155745
0.00155997
0.00156202
0.00156363
0.00156484
0.00156568
0.00156618
0.00156637
0.00156629
0.00156595
0.00156538
0.00156461
0.00156365
0.00156252
0.00156125
0.00155984
0.00155832
0.0015567
0.001555
0.00155322
0.00155137
0.00154948
0.00154755
0.00154559
0.0015436
0.0015416
0.00153959
0.00153758
0.00153558
0.00153358
0.00153161
0.00152965
0.00152772
0.00152582
0.00152395
0.00152212
0.00152032
0.00151856
0.00151685
0.00151518
0.00151355
0.00151197
0.00151043
0.00150895
0.00150751
0.00150612
0.00150478
0.00150349
0.00150225
0.00150106
0.00149992
0.00149882
0.00149778
0.00149677
0.00149582
0.00149491
0.00149405
0.00149323
0.00149245
0.00149171
0.00149102
0.00149037
0.00148975
0.00148917
0.00148864
0.00148813
0.00148767
0.00148723
0.00148684
0.00148647
0.00148614
0.00148584
0.00148557
0.00148533
0.00148512
0.00148494
0.00148479
0.00148467
0.00148458
0.00148452
0.00148449
3.46605e-05
3.04774e-05
4.30745e-05
7.96477e-05
0.000141315
0.000219823
0.000306294
0.000395045
0.000482895
0.000568095
0.000649687
0.000727171
0.000800324
0.000869094
0.000933536
0.000993771
0.00104996
0.00110229
0.00115095
0.00119615
0.00123807
0.00127692
0.00131288
0.00134612
0.00137681
0.00140511
0.00143118
0.00145516
0.00147718
0.00149736
0.00151583
0.0015327
0.00154807
0.00156204
0.0015747
0.00158615
0.00159646
0.00160571
0.00161397
0.00162131
0.0016278
0.0016335
0.00163845
0.00164273
0.00164636
0.00164941
0.00165192
0.00165393
0.00165547
0.00165659
0.00165732
0.00165769
0.00165774
0.00165748
0.00165696
0.00165619
0.00165519
0.00165399
0.00165262
0.00165108
0.0016494
0.0016476
0.00164568
0.00164367
0.00164158
0.00163942
0.00163721
0.00163495
0.00163265
0.00163033
0.00162799
0.00162564
0.00162329
0.00162095
0.00161861
0.0016163
0.001614
0.00161173
0.0016095
0.0016073
0.00160514
0.00160301
0.00160094
0.00159891
0.00159693
0.00159499
0.00159311
0.00159129
0.00158951
0.0015878
0.00158613
0.00158453
0.00158298
0.00158148
0.00158004
0.00157866
0.00157733
0.00157606
0.00157484
0.00157368
0.00157257
0.00157151
0.00157051
0.00156956
0.00156865
0.0015678
0.00156699
0.00156623
0.00156552
0.00156486
0.00156424
0.00156366
0.00156313
0.00156264
0.00156219
0.00156179
0.00156142
0.0015611
0.00156082
0.00156057
0.00156037
0.00156021
0.00156009
0.00156
0.00155996
3.52159e-05
3.09956e-05
4.40375e-05
8.16264e-05
0.000144608
0.000224499
0.000312462
0.000402918
0.000492744
0.000580196
0.000664294
0.000744499
0.000820542