/*--------------------------------*- C++ -*----------------------------------*\
| =========                 |                                                 |
| \\      /  F ield         | OpenFOAM: The Open Source CFD Toolbox           |
|  \\    /   O peration     | Version:  2306                                  |
|   \\  /    A nd           | Website:  www.openfoam.com                      |
|    \\/     M anipulation  |                                                 |
\*---------------------------------------------------------------------------*/
// * * * * * * * * * * * * * * * * * * * * * * * * * * * * * * * * * * * * * //
FoamFile
{
    version         2;
    format          ascii;
    class           volScalarField;
    location        "97.86";
    object          p;
}

dimensions      [ 0 2 -2 0 0 0 0 ];

internalField   nonuniform List<scalar> 
15625
(
2.81423e-16
6.42978e-16
7.18889e-16
7.34296e-16
7.44965e-16
7.51797e-16
7.55771e-16
7.58448e-16
7.60539e-16
7.62324e-16
7.63897e-16
7.65322e-16
7.66629e-16
7.6783e-16
7.68945e-16
7.70025e-16
7.71004e-16
7.71956e-16
7.7285e-16
7.73705e-16
7.74535e-16
7.75338e-16
7.76122e-16
7.76899e-16
7.77636e-16
7.78363e-16
7.79087e-16
7.79805e-16
7.80505e-16
7.81152e-16
7.81833e-16
7.82466e-16
7.8309e-16
7.83698e-16
7.84315e-16
7.84879e-16
7.85434e-16
7.86009e-16
7.86552e-16
7.87066e-16
7.87596e-16
7.88097e-16
7.88556e-16
7.88996e-16
7.89431e-16
7.89812e-16
7.90166e-16
7.90538e-16
7.90879e-16
7.91264e-16
7.91632e-16
7.91918e-16
7.92211e-16
7.92534e-16
7.9287e-16
7.93215e-16
7.93516e-16
7.93822e-16
7.94105e-16
7.94365e-16
7.94643e-16
7.9493e-16
7.95224e-16
7.9548e-16
7.95705e-16
7.95915e-16
7.96111e-16
7.96352e-16
7.96524e-16
7.96701e-16
7.96841e-16
7.97021e-16
7.97204e-16
7.97354e-16
7.97564e-16
7.97797e-16
7.9798e-16
7.98193e-16
7.98337e-16
7.98553e-16
7.98837e-16
7.99053e-16
7.99291e-16
7.99473e-16
7.99647e-16
7.99803e-16
7.99988e-16
8.00115e-16
8.00216e-16
8.00351e-16
8.00506e-16
8.00718e-16
8.00944e-16
8.01152e-16
8.01381e-16
8.01753e-16
8.01917e-16
8.02068e-16
8.02295e-16
8.02495e-16
8.02653e-16
8.02836e-16
8.02948e-16
8.03033e-16
8.03141e-16
8.03256e-16
8.03328e-16
8.03388e-16
8.0342e-16
8.03489e-16
8.03496e-16
8.03582e-16
8.03661e-16
8.03585e-16
8.036e-16
8.03526e-16
8.03645e-16
8.03632e-16
8.03505e-16
8.03454e-16
8.0337e-16
8.03353e-16
8.03235e-16
8.03258e-16
8.03133e-16
6.4298e-16
7.06506e-16
7.28402e-16
7.37402e-16
7.44935e-16
7.50577e-16
7.5452e-16
7.57434e-16
7.59755e-16
7.61739e-16
7.63461e-16
7.64971e-16
7.66347e-16
7.67604e-16
7.68778e-16
7.69867e-16
7.70865e-16
7.71837e-16
7.72797e-16
7.73633e-16
7.74471e-16
7.75261e-16
7.76043e-16
7.76803e-16
7.77571e-16
7.78334e-16
7.79065e-16
7.79766e-16
7.80478e-16
7.81138e-16
7.81798e-16
7.82437e-16
7.83054e-16
7.83672e-16
7.84295e-16
7.84868e-16
7.85436e-16
7.86034e-16
7.86543e-16
7.87026e-16
7.87574e-16
7.88096e-16
7.88532e-16
7.88986e-16
7.89422e-16
7.89827e-16
7.90147e-16
7.90545e-16
7.90905e-16
7.91265e-16
7.91612e-16
7.91893e-16
7.92216e-16
7.92523e-16
7.92878e-16
7.93183e-16
7.93494e-16
7.93809e-16
7.94085e-16
7.94362e-16
7.94629e-16
7.949e-16
7.95184e-16
7.95479e-16
7.95692e-16
7.95923e-16
7.961e-16
7.9636e-16
7.96495e-16
7.96679e-16
7.96836e-16
7.97038e-16
7.97233e-16
7.97355e-16
7.97584e-16
7.97837e-16
7.97984e-16
7.98202e-16
7.9835e-16
7.98572e-16
7.98851e-16
7.99043e-16
7.99322e-16
7.99489e-16
7.99689e-16
7.99883e-16
8.00021e-16
8.00121e-16
8.00209e-16
8.00356e-16
8.00481e-16
8.00727e-16
8.0094e-16
8.01136e-16
8.014e-16
8.0172e-16
8.01884e-16
8.02064e-16
8.02285e-16
8.02514e-16
8.02657e-16
8.02838e-16
8.0295e-16
8.0298e-16
8.03132e-16
8.03284e-16
8.03285e-16
8.03403e-16
8.03468e-16
8.03495e-16
8.03502e-16
8.03632e-16
8.0366e-16
8.03549e-16
8.03603e-16
8.03553e-16
8.03662e-16
8.03627e-16
8.03566e-16
8.03493e-16
8.03391e-16
8.03322e-16
8.03245e-16
8.03275e-16
8.03168e-16
7.18895e-16
7.28408e-16
7.33104e-16
7.3906e-16
7.44988e-16
7.4983e-16
7.53619e-16
7.56636e-16
7.59118e-16
7.61204e-16
7.63027e-16
7.64653e-16
7.66062e-16
7.67359e-16
7.68539e-16
7.69673e-16
7.70669e-16
7.71666e-16
7.72663e-16
7.7353e-16
7.74407e-16
7.752e-16
7.75986e-16
7.76752e-16
7.7754e-16
7.78316e-16
7.79057e-16
7.79724e-16
7.80416e-16
7.81092e-16
7.81743e-16
7.82374e-16
7.82998e-16
7.8361e-16
7.84242e-16
7.84877e-16
7.8542e-16
7.86046e-16
7.86532e-16
7.87048e-16
7.87543e-16
7.88039e-16
7.88503e-16
7.88968e-16
7.89437e-16
7.89839e-16
7.90172e-16
7.9053e-16
7.90889e-16
7.91283e-16
7.91618e-16
7.91924e-16
7.92255e-16
7.92548e-16
7.92871e-16
7.93223e-16
7.93488e-16
7.93812e-16
7.9414e-16
7.94395e-16
7.94631e-16
7.94963e-16
7.95249e-16
7.95483e-16
7.95713e-16
7.95957e-16
7.96152e-16
7.9636e-16
7.96525e-16
7.96712e-16
7.96842e-16
7.96938e-16
7.97289e-16
7.97377e-16
7.97559e-16
7.97822e-16
7.97984e-16
7.98182e-16
7.98343e-16
7.98494e-16
7.98772e-16
7.99049e-16
7.99359e-16
7.99503e-16
7.99672e-16
7.99914e-16
8.00057e-16
8.00195e-16
8.00281e-16
8.00339e-16
8.00477e-16
8.00765e-16
8.00995e-16
8.01091e-16
8.01415e-16
8.01696e-16
8.0189e-16
8.02042e-16
8.02274e-16
8.02477e-16
8.02585e-16
8.0292e-16
8.02983e-16
8.03035e-16
8.03241e-16
8.03385e-16
8.03225e-16
8.03401e-16
8.03546e-16
8.0351e-16
8.0354e-16
8.03669e-16
8.03724e-16
8.03555e-16
8.03677e-16
8.03596e-16
8.03692e-16
8.03687e-16
8.03665e-16
8.03506e-16
8.03428e-16
8.03315e-16
8.03259e-16
8.0332e-16
8.03204e-16
7.34306e-16
7.37417e-16
7.39097e-16
7.42574e-16
7.46552e-16
7.50253e-16
7.53511e-16
7.56345e-16
7.58736e-16
7.60827e-16
7.6268e-16
7.64366e-16
7.65818e-16
7.67207e-16
7.68394e-16
7.69532e-16
7.70483e-16
7.7152e-16
7.72606e-16
7.73382e-16
7.74248e-16
7.75094e-16
7.75872e-16
7.76683e-16
7.77525e-16
7.78254e-16
7.79031e-16
7.79752e-16
7.80345e-16
7.80991e-16
7.81627e-16
7.82352e-16
7.83161e-16
7.83583e-16
7.84145e-16
7.84948e-16
7.85369e-16
7.85958e-16
7.86472e-16
7.87166e-16
7.8758e-16
7.88116e-16
7.88612e-16
7.88916e-16
7.89429e-16
7.89925e-16
7.90113e-16
7.90465e-16
7.90822e-16
7.91317e-16
7.91639e-16
7.91869e-16
7.92255e-16
7.92491e-16
7.92852e-16
7.93297e-16
7.93601e-16
7.93836e-16
7.94159e-16
7.94453e-16
7.94604e-16
7.95089e-16
7.95355e-16
7.95446e-16
7.95691e-16
7.96126e-16
7.9631e-16
7.96409e-16
7.96611e-16
7.96906e-16
7.96833e-16
7.96821e-16
7.97212e-16
7.97477e-16
7.97478e-16
7.97667e-16
7.97865e-16
7.98203e-16
7.98212e-16
7.98492e-16
7.98761e-16
7.99012e-16
7.99387e-16
7.99564e-16
7.99644e-16
7.99845e-16
8.00221e-16
8.00272e-16
8.00276e-16
8.00304e-16
8.00579e-16
8.00845e-16
8.00974e-16
8.0109e-16
8.01481e-16
8.01725e-16
8.01962e-16
8.02115e-16
8.02399e-16
8.02481e-16
8.02605e-16
8.02955e-16
8.02913e-16
8.03204e-16
8.03191e-16
8.0323e-16
8.03135e-16
8.03394e-16
8.03522e-16
8.03534e-16
8.03608e-16
8.03623e-16
8.03684e-16
8.03449e-16
8.03651e-16
8.03646e-16
8.03813e-16
8.03762e-16
8.03727e-16
8.03416e-16
8.03403e-16
8.03315e-16
8.0325e-16
8.03465e-16
8.03258e-16
7.44978e-16
7.4495e-16
7.45003e-16
7.46556e-16
7.48833e-16
7.5137e-16
7.53925e-16
7.56345e-16
7.58566e-16
7.60518e-16
7.62429e-16
7.64042e-16
7.65533e-16
7.6692e-16
7.68216e-16
7.69317e-16
7.70379e-16
7.7143e-16
7.72371e-16
7.73209e-16
7.74133e-16
7.74982e-16
7.75713e-16
7.76713e-16
7.77416e-16
7.78215e-16
7.78884e-16
7.79631e-16
7.80408e-16
7.81039e-16
7.81675e-16
7.82391e-16
7.83255e-16
7.83603e-16
7.84124e-16
7.8483e-16
7.85372e-16
7.8588e-16
7.86422e-16
7.87084e-16
7.87562e-16
7.88147e-16
7.88634e-16
7.88914e-16
7.89491e-16
7.89864e-16
7.90248e-16
7.90553e-16
7.90963e-16
7.91211e-16
7.91666e-16
7.91809e-16
7.92239e-16
7.92702e-16
7.92751e-16
7.93233e-16
7.9345e-16
7.93839e-16
7.94253e-16
7.94453e-16
7.94669e-16
7.95063e-16
7.95409e-16
7.95546e-16
7.95687e-16
7.96044e-16
7.9595e-16
7.9649e-16
7.96672e-16
7.96777e-16
7.96896e-16
7.97006e-16
7.97139e-16
7.97358e-16
7.97579e-16
7.9776e-16
7.97843e-16
7.98395e-16
7.98481e-16
7.98638e-16
7.98938e-16
7.99098e-16
7.99292e-16
7.99686e-16
7.99779e-16
7.99693e-16
8.00185e-16
8.00257e-16
8.00304e-16
8.00461e-16
8.00587e-16
8.00821e-16
8.0101e-16
8.01251e-16
8.01465e-16
8.01838e-16
8.02203e-16
8.02234e-16
8.02305e-16
8.02437e-16
8.02782e-16
8.02906e-16
8.03019e-16
8.03281e-16
8.03311e-16
8.03314e-16
8.03317e-16
8.0351e-16
8.03318e-16
8.03543e-16
8.03746e-16
8.03635e-16
8.03795e-16
8.03578e-16
8.03651e-16
8.03581e-16
8.03686e-16
8.03652e-16
8.03545e-16
8.03425e-16
8.03401e-16
8.03239e-16
8.03155e-16
8.0325e-16
8.03071e-16
7.51815e-16
7.50602e-16
7.49843e-16
7.50262e-16
7.51377e-16
7.52936e-16
7.54814e-16
7.56805e-16
7.58793e-16
7.60573e-16
7.62291e-16
7.63872e-16
7.65302e-16
7.66552e-16
7.67871e-16
7.68946e-16
7.70152e-16
7.71271e-16
7.72271e-16
7.73132e-16
7.74025e-16
7.75e-16
7.75896e-16
7.76369e-16
7.77332e-16
7.78039e-16
7.78722e-16
7.79542e-16
7.80412e-16
7.81055e-16
7.81669e-16
7.82321e-16
7.82979e-16
7.83455e-16
7.84149e-16
7.84889e-16
7.85331e-16
7.85647e-16
7.86386e-16
7.86936e-16
7.87532e-16
7.8814e-16
7.88626e-16
7.88914e-16
7.89564e-16
7.89886e-16
7.90568e-16
7.90516e-16
7.9085e-16
7.91287e-16
7.91624e-16
7.91759e-16
7.92131e-16
7.92749e-16
7.92759e-16
7.93319e-16
7.93484e-16
7.93826e-16
7.94174e-16
7.94453e-16
7.94649e-16
7.9519e-16
7.95726e-16
7.95727e-16
7.95815e-16
7.95891e-16
7.96025e-16
7.96424e-16
7.96314e-16
7.96618e-16
7.96922e-16
7.97106e-16
7.97244e-16
7.97455e-16
7.97559e-16
7.97587e-16
7.97822e-16
7.98467e-16
7.98892e-16
7.98643e-16
7.99003e-16
7.99245e-16
7.99415e-16
7.99438e-16
7.99602e-16
7.99891e-16
8.00174e-16
8.00047e-16
8.00283e-16
8.00462e-16
8.00605e-16
8.00899e-16
8.00889e-16
8.01295e-16
8.01489e-16
8.01931e-16
8.02232e-16
8.02463e-16
8.02064e-16
8.02455e-16
8.02848e-16
8.02848e-16
8.03008e-16
8.03261e-16
8.03472e-16
8.03334e-16
8.03331e-16
8.03516e-16
8.03281e-16
8.0356e-16
8.03579e-16
8.03655e-16
8.03968e-16
8.03645e-16
8.03657e-16
8.03486e-16
8.03778e-16
8.03842e-16
8.03494e-16
8.03445e-16
8.03443e-16
8.03363e-16
8.03259e-16
8.03207e-16
8.03127e-16
7.55789e-16
7.54537e-16
7.53625e-16
7.53497e-16
7.53925e-16
7.54793e-16
7.56067e-16
7.57575e-16
7.59166e-16
7.60851e-16
7.62381e-16
7.63908e-16
7.65238e-16
7.66494e-16
7.67766e-16
7.68974e-16
7.70031e-16
7.71149e-16
7.7219e-16
7.73063e-16
7.73926e-16
7.74908e-16
7.75717e-16
7.76358e-16
7.77219e-16
7.77948e-16
7.78706e-16
7.79492e-16
7.80325e-16
7.80815e-16
7.81535e-16
7.8228e-16
7.82932e-16
7.83524e-16
7.84052e-16
7.84689e-16
7.85197e-16
7.85917e-16
7.86303e-16
7.86986e-16
7.87532e-16
7.88037e-16
7.8849e-16
7.89091e-16
7.89613e-16
7.89741e-16
7.90332e-16
7.90624e-16
7.90981e-16
7.91362e-16
7.91535e-16
7.91964e-16
7.92327e-16
7.92715e-16
7.92742e-16
7.93183e-16
7.93412e-16
7.93806e-16
7.94045e-16
7.9435e-16
7.94738e-16
7.95115e-16
7.95428e-16
7.95679e-16
7.96048e-16
7.95907e-16
7.96125e-16
7.96477e-16
7.96677e-16
7.96718e-16
7.96949e-16
7.97117e-16
7.97274e-16
7.9722e-16
7.97371e-16
7.97629e-16
7.97942e-16
7.98263e-16
7.98781e-16
7.9824e-16
7.99015e-16
7.99654e-16
7.997e-16
7.99531e-16
7.99921e-16
8.00068e-16
7.99837e-16
8.0021e-16
8.00647e-16
8.00419e-16
8.00511e-16
8.00802e-16
8.01016e-16
8.01362e-16
8.01729e-16
8.0215e-16
8.02524e-16
8.02288e-16
8.02274e-16
8.02705e-16
8.03075e-16
8.02654e-16
8.02856e-16
8.03246e-16
8.03184e-16
8.03207e-16
8.03378e-16
8.03555e-16
8.0376e-16
8.03613e-16
8.032e-16
8.0366e-16
8.04075e-16
8.03976e-16
8.03683e-16
8.03485e-16
8.03854e-16
8.03551e-16
8.03489e-16
8.03402e-16
8.03365e-16
8.03761e-16
8.03551e-16
8.04196e-16
8.03467e-16
7.58476e-16
7.57457e-16
7.56631e-16
7.56285e-16
7.56322e-16
7.56719e-16
7.57579e-16
7.58673e-16
7.5991e-16
7.61375e-16
7.62691e-16
7.64032e-16
7.65325e-16
7.66549e-16
7.67847e-16
7.68998e-16
7.70015e-16
7.70979e-16
7.71976e-16
7.72821e-16
7.73706e-16
7.74674e-16
7.75896e-16
7.76385e-16
7.77087e-16
7.7788e-16
7.78611e-16
7.79456e-16
7.80337e-16
7.80686e-16
7.81245e-16
7.82251e-16
7.83144e-16
7.84042e-16
7.84184e-16
7.84551e-16
7.85103e-16
7.85733e-16
7.86411e-16
7.8715e-16
7.87561e-16
7.88055e-16
7.88749e-16
7.89243e-16
7.89337e-16
7.89645e-16
7.90051e-16
7.90602e-16
7.91018e-16
7.91585e-16
7.91551e-16
7.91953e-16
7.92541e-16
7.92136e-16
7.92735e-16
7.93154e-16
7.93587e-16
7.94336e-16
7.9422e-16
7.94362e-16
7.94584e-16
7.95066e-16
7.95385e-16
7.9582e-16
7.96169e-16
7.96074e-16
7.9644e-16
7.96623e-16
7.97189e-16
7.96655e-16
7.97027e-16
7.97152e-16
7.97262e-16
7.97755e-16
7.9743e-16
7.97181e-16
7.98096e-16
7.98393e-16
7.98467e-16
7.97781e-16
7.9848e-16
7.99708e-16
7.99764e-16
8.00078e-16
8.00329e-16
8.01043e-16
7.99765e-16
8.00162e-16
8.01427e-16
8.003e-16
8.00333e-16
8.00562e-16
8.00432e-16
8.01631e-16
8.01509e-16
8.02081e-16
8.02362e-16
8.02341e-16
8.0235e-16
8.02479e-16
8.02853e-16
8.02784e-16
8.03086e-16
8.03194e-16
8.03269e-16
8.03639e-16
8.03299e-16
8.03581e-16
8.03463e-16
8.03644e-16
8.03198e-16
8.03804e-16
8.04017e-16
8.03959e-16
8.03687e-16
8.0389e-16
8.03336e-16
8.03366e-16
8.03716e-16
8.0345e-16
8.03258e-16
8.03959e-16
8.03414e-16
8.04437e-16
8.02999e-16
7.60584e-16
7.59816e-16
7.59118e-16
7.58764e-16
7.58585e-16
7.58619e-16
7.59214e-16
7.59968e-16
7.60891e-16
7.62077e-16
7.63241e-16
7.64445e-16
7.65652e-16
7.67012e-16
7.67791e-16
7.68921e-16
7.70257e-16
7.70961e-16
7.71949e-16
7.72714e-16
7.73179e-16
7.74114e-16
7.7537e-16
7.76501e-16
7.77059e-16
7.77864e-16
7.78342e-16
7.79391e-16
7.80536e-16
7.80961e-16
7.81719e-16
7.82306e-16
7.83125e-16
7.83588e-16
7.8428e-16
7.84877e-16
7.85434e-16
7.85859e-16
7.86495e-16
7.86989e-16
7.87898e-16
7.88172e-16
7.8871e-16
7.88876e-16
7.88966e-16
7.89458e-16
7.89279e-16
7.90203e-16
7.90724e-16
7.92237e-16
7.91621e-16
7.91596e-16
7.93085e-16
7.91806e-16
7.92733e-16
7.93863e-16
7.93276e-16
7.94109e-16
7.94061e-16
7.9466e-16
7.94471e-16
7.95105e-16
7.95573e-16
7.95728e-16
7.96144e-16
7.95906e-16
7.96798e-16
7.96584e-16
7.97023e-16
7.96975e-16
7.97353e-16
7.97209e-16
7.97056e-16
7.97206e-16
7.98102e-16
7.98009e-16
7.98035e-16
7.99022e-16
7.98394e-16
7.98109e-16
7.99402e-16
7.99787e-16
8.00239e-16
7.99971e-16
8.00183e-16
8.01433e-16
7.99944e-16
8.00332e-16
8.01512e-16
8.00801e-16
8.00949e-16
8.00903e-16
8.00521e-16
8.01748e-16
8.00906e-16
8.01505e-16
8.02922e-16
8.01912e-16
8.02546e-16
8.03345e-16
8.02924e-16
8.02487e-16
8.03283e-16
8.03004e-16
8.02964e-16
8.03526e-16
8.03717e-16
8.03748e-16
8.03586e-16
8.03609e-16
8.03686e-16
8.04233e-16
8.03516e-16
8.04281e-16
8.03549e-16
8.04588e-16
8.0256e-16
8.04122e-16
8.0377e-16
8.03483e-16
8.03369e-16
8.04183e-16
8.03177e-16
8.03519e-16
8.02842e-16
7.6237e-16
7.61781e-16
7.61242e-16
7.60926e-16
7.60729e-16
7.60573e-16
7.60798e-16
7.6134e-16
7.62047e-16
7.63061e-16
7.64115e-16
7.65279e-16
7.66113e-16
7.67239e-16
7.67979e-16
7.68803e-16
7.70192e-16
7.71275e-16
7.72141e-16
7.72953e-16
7.73657e-16
7.74561e-16
7.75574e-16
7.76775e-16
7.77263e-16
7.78212e-16
7.78907e-16
7.79396e-16
7.80476e-16
7.80994e-16
7.81652e-16
7.82318e-16
7.83241e-16
7.84187e-16
7.84172e-16
7.84703e-16
7.85486e-16
7.85848e-16
7.86843e-16
7.87491e-16
7.88479e-16
7.88249e-16
7.89067e-16
7.89063e-16
7.88791e-16
7.89581e-16
7.90388e-16
7.90296e-16
7.90752e-16
7.91455e-16
7.92073e-16
7.92096e-16
7.93101e-16
7.92859e-16
7.93344e-16
7.94517e-16
7.9421e-16
7.94638e-16
7.94468e-16
7.95e-16
7.94339e-16
7.95473e-16
7.96186e-16
7.95814e-16
7.96711e-16
7.95977e-16
7.95827e-16
7.963e-16
7.9743e-16
7.97333e-16
7.97244e-16
7.97288e-16
7.97841e-16
7.97669e-16
7.97804e-16
7.97656e-16
7.98728e-16
7.98908e-16
7.98159e-16
7.98729e-16
7.99594e-16
7.99183e-16
8.00244e-16
8.00021e-16
8.01005e-16
8.01666e-16
8.00254e-16
8.00595e-16
8.0076e-16
8.00618e-16
8.00441e-16
8.01412e-16
8.00684e-16
8.01816e-16
8.00537e-16
8.01757e-16
8.02779e-16
8.02173e-16
8.02879e-16
8.0341e-16
8.03188e-16
8.027e-16
8.03741e-16
8.03349e-16
8.03716e-16
8.04341e-16
8.0456e-16
8.04155e-16
8.03677e-16
8.03383e-16
8.03771e-16
8.04375e-16
8.03849e-16
8.04368e-16
8.03743e-16
8.04094e-16
8.03667e-16
8.04708e-16
8.03513e-16
8.03609e-16
8.0207e-16
8.0441e-16
8.02936e-16
8.02286e-16
8.01708e-16
7.63949e-16
7.63505e-16
7.63065e-16
7.6273e-16
7.62497e-16
7.62273e-16
7.62372e-16
7.62744e-16
7.63342e-16
7.63847e-16
7.64945e-16
7.6587e-16
7.66667e-16
7.67527e-16
7.68517e-16
7.69421e-16
7.70443e-16
7.71432e-16
7.72497e-16
7.7324e-16
7.74186e-16
7.74801e-16
7.75725e-16
7.76284e-16
7.7658e-16
7.78154e-16
7.79066e-16
7.79734e-16
7.80236e-16
7.80906e-16
7.81561e-16
7.82603e-16
7.83182e-16
7.83661e-16
7.84099e-16
7.84634e-16
7.85573e-16
7.86003e-16
7.87033e-16
7.87333e-16
7.8789e-16
7.8818e-16
7.89152e-16
7.89011e-16
7.89634e-16
7.90018e-16
7.899e-16
7.90161e-16
7.90773e-16
7.91499e-16
7.91439e-16
7.9215e-16
7.92537e-16
7.92588e-16
7.93041e-16
7.93617e-16
7.93865e-16
7.9413e-16
7.94368e-16
7.94673e-16
7.94426e-16
7.95347e-16
7.95975e-16
7.95687e-16
7.96034e-16
7.96216e-16
7.96129e-16
7.96742e-16
7.9709e-16
7.97145e-16
7.97059e-16
7.96995e-16
7.97702e-16
7.98021e-16
7.97498e-16
7.98028e-16
7.98701e-16
7.98442e-16
7.98819e-16
7.98952e-16
7.99109e-16
7.9959e-16
7.99799e-16
7.99958e-16
8.00592e-16
8.01395e-16
8.01501e-16
8.01166e-16
8.00067e-16
8.00422e-16
8.00807e-16
8.017e-16
8.00891e-16
8.01878e-16
8.01855e-16
8.02309e-16
8.02687e-16
8.01956e-16
8.02569e-16
8.03584e-16
8.03021e-16
8.03285e-16
8.03863e-16
8.03269e-16
8.03722e-16
8.03616e-16
8.03791e-16
8.03904e-16
8.03558e-16
8.03581e-16
8.03621e-16
8.04574e-16
8.04213e-16
8.04176e-16
8.03641e-16
8.03962e-16
8.03761e-16
8.03945e-16
8.03147e-16
8.03274e-16
8.02945e-16
8.03602e-16
8.03356e-16
8.02852e-16
8.02208e-16
7.65386e-16
7.65038e-16
7.647e-16
7.64407e-16
7.64079e-16
7.63877e-16
7.63882e-16
7.64097e-16
7.64429e-16
7.6468e-16
7.65798e-16
7.66614e-16
7.67235e-16
7.67745e-16
7.68961e-16
7.69826e-16
7.70762e-16
7.71451e-16
7.72644e-16
7.73554e-16
7.74449e-16
7.75251e-16
7.76142e-16
7.758e-16
7.77122e-16
7.77938e-16
7.78881e-16
7.79671e-16
7.80001e-16
7.80809e-16
7.81127e-16
7.82547e-16
7.82815e-16
7.83111e-16
7.84125e-16
7.85148e-16
7.86426e-16
7.85886e-16
7.86781e-16
7.87309e-16
7.87778e-16
7.888e-16
7.89226e-16
7.88921e-16
7.90078e-16
7.90037e-16
7.89729e-16
7.90434e-16
7.90563e-16
7.91611e-16
7.91497e-16
7.92587e-16
7.93668e-16
7.93077e-16
7.93087e-16
7.93434e-16
7.93629e-16
7.93599e-16
7.93928e-16
7.94503e-16
7.94975e-16
7.95528e-16
7.9642e-16
7.9602e-16
7.96213e-16
7.96361e-16
7.97011e-16
7.97373e-16
7.97145e-16
7.97145e-16
7.96709e-16
7.97428e-16
7.97611e-16
7.97673e-16
7.97882e-16
7.98112e-16
7.98428e-16
7.97872e-16
7.98461e-16
7.99193e-16
7.9843e-16
8.00412e-16
7.99341e-16
7.99912e-16
8.00989e-16
8.0165e-16
8.0104e-16
8.0075e-16
7.99789e-16
8.01065e-16
8.0056e-16
8.01449e-16
8.01677e-16
8.01286e-16
8.02451e-16
8.02111e-16
8.01974e-16
8.02003e-16
8.03293e-16
8.03977e-16
8.03948e-16
8.03401e-16
8.03038e-16
8.03581e-16
8.04124e-16
8.04664e-16
8.03581e-16
8.04166e-16
8.0312e-16
8.03415e-16
8.03896e-16
8.04675e-16
8.04163e-16
8.04293e-16
8.03965e-16
8.0398e-16
8.03731e-16
8.03952e-16
8.02636e-16
8.02874e-16
8.03597e-16
8.03334e-16
8.02884e-16
8.03441e-16
8.02922e-16
7.66705e-16
7.66428e-16
7.66146e-16
7.65886e-16
7.65597e-16
7.65378e-16
7.65291e-16
7.65357e-16
7.65554e-16
7.65997e-16
7.66641e-16
7.67256e-16
7.68075e-16
7.68533e-16
7.69453e-16
7.70406e-16
7.71258e-16
7.71283e-16
7.72494e-16
7.73623e-16
7.74533e-16
7.75044e-16
7.75917e-16
7.76408e-16
7.77568e-16
7.78175e-16
7.7902e-16
7.79789e-16
7.80323e-16
7.81107e-16
7.81713e-16
7.82465e-16
7.82982e-16
7.83279e-16
7.84155e-16
7.84366e-16
7.86091e-16
7.86184e-16
7.86974e-16
7.87325e-16
7.87427e-16
7.88276e-16
7.88931e-16
7.88856e-16
7.89811e-16
7.89897e-16
7.90799e-16
7.89911e-16
7.90925e-16
7.92015e-16
7.91792e-16
7.92896e-16
7.92488e-16
7.92704e-16
7.93252e-16
7.93827e-16
7.93352e-16
7.94215e-16
7.94554e-16
7.95327e-16
7.95058e-16
7.95379e-16
7.9537e-16
7.9589e-16
7.96294e-16
7.96089e-16
7.97081e-16
7.96928e-16
7.96931e-16
7.96806e-16
7.96828e-16
7.97897e-16
7.9729e-16
7.98334e-16
7.9802e-16
7.97626e-16
7.98841e-16
7.98282e-16
7.99319e-16
7.99146e-16
7.98174e-16
8.00227e-16
7.99356e-16
8.00146e-16
8.01113e-16
8.02529e-16
8.00889e-16
8.00594e-16
8.01167e-16
8.0133e-16
8.00671e-16
8.01458e-16
8.02797e-16
8.01602e-16
8.02823e-16
8.02048e-16
8.02696e-16
8.0246e-16
8.02765e-16
8.03595e-16
8.04077e-16
8.03228e-16
8.02684e-16
8.037e-16
8.03909e-16
8.04495e-16
8.03409e-16
8.04228e-16
8.03187e-16
8.0338e-16
8.03901e-16
8.04229e-16
8.0449e-16
8.04165e-16
8.03612e-16
8.03893e-16
8.03928e-16
8.03685e-16
8.029e-16
8.0379e-16
8.02935e-16
8.03289e-16
8.03176e-16
8.0434e-16
8.03331e-16
7.67927e-16
7.67702e-16
7.67468e-16
7.67174e-16
7.66961e-16
7.66839e-16
7.66634e-16
7.66476e-16
7.66365e-16
7.67068e-16
7.67776e-16
7.68465e-16
7.69001e-16
7.69295e-16
7.69676e-16
7.70639e-16
7.71681e-16
7.72247e-16
7.72959e-16
7.74029e-16
7.75441e-16
7.75797e-16
7.75827e-16
7.76679e-16
7.77675e-16
7.77554e-16
7.7901e-16
7.79893e-16
7.80435e-16
7.82003e-16
7.82431e-16
7.82572e-16
7.83346e-16
7.83847e-16
7.84733e-16
7.84595e-16
7.85972e-16
7.86151e-16
7.86073e-16
7.87325e-16
7.87712e-16
7.87651e-16
7.88959e-16
7.89792e-16
7.90749e-16
7.90887e-16
7.90928e-16
7.90702e-16
7.91665e-16
7.92982e-16
7.92158e-16
7.91145e-16
7.92424e-16
7.92266e-16
7.9342e-16
7.94755e-16
7.93968e-16
7.95206e-16
7.94614e-16
7.95338e-16
7.94273e-16
7.94751e-16
7.94397e-16
7.95835e-16
7.96418e-16
7.96378e-16
7.95927e-16
7.96346e-16
7.96444e-16
7.95743e-16
7.97027e-16
7.97475e-16
7.96968e-16
7.97674e-16
7.97917e-16
7.97763e-16
7.98424e-16
7.99354e-16
7.9917e-16
7.99212e-16
7.98393e-16
8.00331e-16
8.00255e-16
8.00868e-16
8.02119e-16
8.02205e-16
8.00378e-16
8.0108e-16
8.01527e-16
8.01966e-16
8.0144e-16
8.01485e-16
8.01824e-16
8.01926e-16
8.02085e-16
8.02604e-16
8.03834e-16
8.02256e-16
8.03417e-16
8.03789e-16
8.03793e-16
8.04075e-16
8.01947e-16
8.03679e-16
8.04226e-16
8.04259e-16
8.0301e-16
8.04275e-16
8.03715e-16
8.02356e-16
8.04648e-16
8.04619e-16
8.04002e-16
8.02836e-16
8.03376e-16
8.03679e-16
8.04424e-16
8.03578e-16
8.02457e-16
8.05314e-16
8.01653e-16
8.03195e-16
8.03097e-16
8.03525e-16
8.02991e-16
7.69109e-16
7.68917e-16
7.68733e-16
7.6845e-16
7.68138e-16
7.68111e-16
7.67987e-16
7.67945e-16
7.67921e-16
7.68254e-16
7.68624e-16
7.69128e-16
7.69859e-16
7.70689e-16
7.70859e-16
7.7103e-16
7.72075e-16
7.72587e-16
7.73812e-16
7.74154e-16
7.75379e-16
7.75974e-16
7.76596e-16
7.77308e-16
7.77634e-16
7.78037e-16
7.78801e-16
7.80058e-16
7.81279e-16
7.82747e-16
7.8227e-16
7.82381e-16
7.84195e-16
7.84373e-16
7.85048e-16
7.8587e-16
7.85896e-16
7.8608e-16
7.87153e-16
7.87548e-16
7.8771e-16
7.88969e-16
7.89344e-16
7.89649e-16
7.91104e-16
7.91004e-16
7.90842e-16
7.90105e-16
7.91618e-16
7.92687e-16
7.92477e-16
7.92034e-16
7.9313e-16
7.93255e-16
7.927e-16
7.92782e-16
7.94269e-16
7.94641e-16
7.9385e-16
7.9498e-16
7.94649e-16
7.95455e-16
7.95155e-16
7.95581e-16
7.96563e-16
7.96579e-16
7.96536e-16
7.96913e-16
7.97326e-16
7.96805e-16
7.96713e-16
7.96889e-16
7.97272e-16
7.98808e-16
7.98966e-16
7.9905e-16
7.97843e-16
7.9951e-16
7.98602e-16
7.97582e-16
7.99046e-16
7.99626e-16
8.00037e-16
8.01021e-16
8.00607e-16
8.02716e-16
8.0009e-16
8.01143e-16
8.0051e-16
8.01698e-16
8.02023e-16
8.03269e-16
8.02253e-16
8.01724e-16
8.02731e-16
8.03175e-16
8.03351e-16
8.02445e-16
8.04426e-16
8.0464e-16
8.04134e-16
8.04416e-16
8.02855e-16
8.04116e-16
8.05004e-16
8.03768e-16
8.03816e-16
8.03793e-16
8.04349e-16
8.02989e-16
8.05552e-16
8.06134e-16
8.02791e-16
8.05519e-16
8.03665e-16
8.03967e-16
8.04176e-16
8.04209e-16
8.03084e-16
8.03459e-16
8.02283e-16
8.02554e-16
8.01594e-16
8.03725e-16
8.03023e-16
7.70194e-16
7.70069e-16
7.6987e-16
7.69586e-16
7.69454e-16
7.69398e-16
7.69038e-16
7.69115e-16
7.69089e-16
7.69641e-16
7.69662e-16
7.70083e-16
7.705e-16
7.71195e-16
7.72187e-16
7.72218e-16
7.72705e-16
7.7318e-16
7.74208e-16
7.744e-16
7.74976e-16
7.76149e-16
7.77331e-16
7.7759e-16
7.77266e-16
7.78463e-16
7.79597e-16
7.80507e-16
7.8123e-16
7.82513e-16
7.82319e-16
7.82476e-16
7.83291e-16
7.84028e-16
7.84262e-16
7.84971e-16
7.83994e-16
7.84814e-16
7.86473e-16
7.87497e-16
7.88028e-16
7.88993e-16
7.89808e-16
7.89335e-16
7.89923e-16
7.90292e-16
7.90958e-16
7.91126e-16
7.91671e-16
7.94126e-16
7.93405e-16
7.93005e-16
7.92643e-16
7.9273e-16
7.93535e-16
7.94438e-16
7.9453e-16
7.94977e-16
7.95162e-16
7.95506e-16
7.95534e-16
7.95344e-16
7.95184e-16
7.96133e-16
7.97292e-16
7.96832e-16
7.96565e-16
7.97129e-16
7.95629e-16
7.96646e-16
7.97285e-16
7.97875e-16
7.98349e-16
7.98417e-16
7.9912e-16
7.99099e-16
7.97746e-16
7.9838e-16
7.97412e-16
7.97838e-16
7.99549e-16
7.99274e-16
8.00144e-16
8.0182e-16
8.01138e-16
8.02143e-16
8.00487e-16
8.01379e-16
7.9976e-16
8.01798e-16
8.02249e-16
8.02712e-16
8.02506e-16
8.0201e-16
8.03653e-16
8.04452e-16
8.05202e-16
8.02829e-16
8.0433e-16
8.04986e-16
8.04976e-16
8.05765e-16
8.04315e-16
8.05734e-16
8.03293e-16
8.04558e-16
8.03458e-16
8.03313e-16
8.04487e-16
8.03517e-16
8.07215e-16
8.04963e-16
8.04435e-16
8.06584e-16
8.04201e-16
8.043e-16
8.04437e-16
8.05936e-16
8.0373e-16
8.03361e-16
8.03611e-16
8.0293e-16
8.03029e-16
8.04064e-16
8.0337e-16
7.71266e-16
7.71147e-16
7.71004e-16
7.70901e-16
7.70597e-16
7.70366e-16
7.70242e-16
7.70235e-16
7.69768e-16
7.70444e-16
7.70503e-16
7.70901e-16
7.715e-16
7.71861e-16
7.72587e-16
7.72876e-16
7.73386e-16
7.7447e-16
7.74726e-16
7.75768e-16
7.76783e-16
7.76599e-16
7.77195e-16
7.77911e-16
7.78344e-16
7.79211e-16
7.80114e-16
7.81142e-16
7.81199e-16
7.82003e-16
7.82578e-16
7.83053e-16
7.83701e-16
7.84864e-16
7.85616e-16
7.85398e-16
7.85837e-16
7.85331e-16
7.86762e-16
7.86829e-16
7.87773e-16
7.88874e-16
7.89553e-16
7.89894e-16
7.90294e-16
7.9076e-16
7.9098e-16
7.9124e-16
7.9196e-16
7.9356e-16
7.92833e-16
7.92642e-16
7.93559e-16
7.94346e-16
7.9414e-16
7.93502e-16
7.94574e-16
7.93814e-16
7.94812e-16
7.96257e-16
7.95782e-16
7.9561e-16
7.94992e-16
7.96187e-16
7.97443e-16
7.9698e-16
7.95343e-16
7.97797e-16
7.96937e-16
7.97819e-16
7.9794e-16
7.98994e-16
7.98631e-16
7.98028e-16
7.98606e-16
8.002e-16
7.98362e-16
7.96976e-16
7.98497e-16
7.9848e-16
8.00398e-16
8.00305e-16
8.00193e-16
8.00829e-16
7.99611e-16
8.01862e-16
8.01658e-16
8.02464e-16
8.01042e-16
8.02617e-16
8.02804e-16
8.02113e-16
8.02298e-16
8.02923e-16
8.0379e-16
8.04695e-16
8.04442e-16
8.03375e-16
8.04862e-16
8.04527e-16
8.0418e-16
8.05331e-16
8.05024e-16
8.0539e-16
8.04672e-16
8.05168e-16
8.04591e-16
8.03874e-16
8.04142e-16
8.03936e-16
8.06751e-16
8.04884e-16
8.05517e-16
8.05281e-16
8.04167e-16
8.04876e-16
8.03779e-16
8.04161e-16
8.04304e-16
8.03307e-16
8.03394e-16
8.02626e-16
8.03304e-16
8.05799e-16
8.04093e-16
7.7226e-16
7.72134e-16
7.72033e-16
7.71968e-16
7.71617e-16
7.71295e-16
7.71327e-16
7.71382e-16
7.71128e-16
7.7149e-16
7.71566e-16
7.71753e-16
7.72483e-16
7.7251e-16
7.72668e-16
7.73342e-16
7.73537e-16
7.7466e-16
7.75271e-16
7.76495e-16
7.76666e-16
7.77117e-16
7.77218e-16
7.78246e-16
7.78256e-16
7.79419e-16
7.80273e-16
7.81024e-16
7.81045e-16
7.82494e-16
7.83206e-16
7.83506e-16
7.83971e-16
7.84431e-16
7.87045e-16
7.85844e-16
7.864e-16
7.86692e-16
7.87098e-16
7.86454e-16
7.88408e-16
7.89333e-16
7.89795e-16
7.90186e-16
7.90637e-16
7.90935e-16
7.91976e-16
7.92257e-16
7.91882e-16
7.93628e-16
7.92567e-16
7.91966e-16
7.93195e-16
7.93446e-16
7.92771e-16
7.93658e-16
7.93555e-16
7.93622e-16
7.94155e-16
7.9569e-16
7.95427e-16
7.95309e-16
7.96218e-16
7.95782e-16
7.96961e-16
7.9784e-16
7.96098e-16
7.97206e-16
7.96535e-16
7.97526e-16
7.98123e-16
7.99064e-16
7.99065e-16
7.97352e-16
7.979e-16
7.99091e-16
7.98401e-16
7.98725e-16
7.99356e-16
8.00328e-16
8.00523e-16
7.99334e-16
7.99867e-16
8.01368e-16
7.98724e-16
8.01424e-16
8.02759e-16
8.02627e-16
8.00041e-16
8.02457e-16
8.04103e-16
8.02395e-16
8.02546e-16
8.03474e-16
8.04544e-16
8.05145e-16
8.04298e-16
8.02289e-16
8.04359e-16
8.04351e-16
8.02762e-16
8.04865e-16
8.0461e-16
8.04298e-16
8.04536e-16
8.04515e-16
8.04173e-16
8.04093e-16
8.03963e-16
8.03277e-16
8.0445e-16
8.0366e-16
8.06715e-16
8.03719e-16
8.03762e-16
8.04304e-16
8.03115e-16
8.02879e-16
8.04277e-16
8.02405e-16
8.0118e-16
8.02808e-16
8.02539e-16
8.03204e-16
8.0189e-16
7.73201e-16
7.73066e-16
7.72947e-16
7.72793e-16
7.72718e-16
7.72569e-16
7.72357e-16
7.72278e-16
7.72232e-16
7.72318e-16
7.72541e-16
7.72781e-16
7.73187e-16
7.73148e-16
7.73617e-16
7.74335e-16
7.75044e-16
7.75416e-16
7.75516e-16
7.76419e-16
7.77378e-16
7.7884e-16
7.78029e-16
7.78697e-16
7.79128e-16
7.79942e-16
7.80834e-16
7.81861e-16
7.82792e-16
7.84539e-16
7.82771e-16
7.83543e-16
7.84838e-16
7.85337e-16
7.8636e-16
7.85988e-16
7.87783e-16
7.87465e-16
7.87455e-16
7.87038e-16
7.87386e-16
7.90461e-16
7.90644e-16
7.90448e-16
7.91109e-16
7.90558e-16
7.92038e-16
7.92219e-16
7.91545e-16
7.92385e-16
7.92218e-16
7.92708e-16
7.91997e-16
7.93122e-16
7.94641e-16
7.94002e-16
7.94264e-16
7.95473e-16
7.95152e-16
7.95793e-16
7.96832e-16
7.9569e-16
7.97442e-16
7.96624e-16
7.96628e-16
7.9819e-16
7.96074e-16
7.97212e-16
7.97264e-16
7.97449e-16
7.98121e-16
7.98448e-16
7.97696e-16
7.97801e-16
7.96818e-16
7.9933e-16
7.97911e-16
7.9964e-16
7.99324e-16
8.00418e-16
8.00225e-16
7.98584e-16
7.98683e-16
8.01805e-16
8.00606e-16
8.01621e-16
8.0147e-16
8.02208e-16
8.01153e-16
8.01961e-16
8.02575e-16
8.03862e-16
8.02828e-16
8.03681e-16
8.03295e-16
8.04335e-16
8.05594e-16
8.03249e-16
8.03456e-16
8.045e-16
8.03826e-16
8.05627e-16
8.04812e-16
8.03534e-16
8.04499e-16
8.04231e-16
8.03649e-16
8.04335e-16
8.03415e-16
8.03013e-16
8.03323e-16
8.03238e-16
8.04846e-16
8.04588e-16
8.03165e-16
8.04829e-16
8.05344e-16
8.01505e-16
8.04011e-16
8.02292e-16
8.02331e-16
8.02842e-16
8.00694e-16
8.00948e-16
8.05304e-16
7.74111e-16
7.74032e-16
7.73938e-16
7.73822e-16
7.73626e-16
7.73483e-16
7.73224e-16
7.73151e-16
7.73215e-16
7.73481e-16
7.73535e-16
7.73776e-16
7.73955e-16
7.73959e-16
7.74357e-16
7.75403e-16
7.75699e-16
7.7542e-16
7.76099e-16
7.77152e-16
7.79078e-16
7.78236e-16
7.77727e-16
7.79703e-16
7.79988e-16
7.81037e-16
7.82513e-16
7.81895e-16
7.82361e-16
7.83193e-16
7.82493e-16
7.83134e-16
7.83984e-16
7.84591e-16
7.8383e-16
7.86106e-16
7.87753e-16
7.86835e-16
7.87864e-16
7.89609e-16
7.89682e-16
7.89906e-16
7.89828e-16
7.90624e-16
7.9084e-16
7.90874e-16
7.93909e-16
7.92543e-16
7.9175e-16
7.91268e-16
7.93508e-16
7.93805e-16
7.9361e-16
7.92502e-16
7.9501e-16
7.93747e-16
7.9488e-16
7.95916e-16
7.95584e-16
7.95658e-16
7.95909e-16
7.97106e-16
7.97037e-16
7.97002e-16
7.97631e-16
7.98502e-16
7.95862e-16
7.97429e-16
7.9796e-16
7.97081e-16
7.98311e-16
7.99277e-16
7.97433e-16