/*--------------------------------*- C++ -*----------------------------------*\
| =========                 |                                                 |
| \\      /  F ield         | OpenFOAM: The Open Source CFD Toolbox           |
|  \\    /   O peration     | Version:  2306                                  |
|   \\  /    A nd           | Website:  www.openfoam.com                      |
|    \\/     M anipulation  |                                                 |
\*---------------------------------------------------------------------------*/
// * * * * * * * * * * * * * * * * * * * * * * * * * * * * * * * * * * * * * //
FoamFile
{
    version         2;
    format          ascii;
    class           volTensorField;
    location        "0";
    object          Q_S;
}

dimensions      [ 0 0 0 0 0 0 0 ];

internalField   nonuniform List<tensor> 
15625
(
(0.707107 0.707107 -9.19227e-18 0.5 -0.5 -0.707107 0.5 -0.5 0.707107)
(0.707107 0.707107 -6.26119e-14 0.212221 -0.212221 -0.9539 0.674509 -0.674509 0.300125)
(0.707107 0.707107 -3.78945e-14 0.127842 -0.127842 -0.983521 0.695454 -0.695454 0.180795)
(0.707107 0.707107 -4.19457e-14 0.0904307 -0.0904307 -0.991789 0.7013 -0.7013 0.127888)
(0.707107 0.707107 -2.9963e-14 0.0693554 -0.0693554 -0.995178 0.703697 -0.703697 0.0980834)
(0.707107 0.707107 -2.02861e-14 0.0556811 -0.0556811 -0.996895 0.704911 -0.704911 0.078745)
(0.707107 0.707107 -1.42436e-14 0.0459887 -0.0459887 -0.997883 0.70561 -0.70561 0.0650378)
(0.707107 0.707107 -1.04453e-14 0.0387227 -0.0387227 -0.998499 0.706046 -0.706046 0.0547622)
(0.707107 0.707107 -7.96298e-15 0.0330767 -0.0330767 -0.998905 0.706333 -0.706333 0.0467775)
(0.707107 0.707107 -6.27094e-15 0.0285835 -0.0285835 -0.999183 0.706529 -0.706529 0.0404231)
(0.707107 0.707107 -5.06881e-15 0.0249468 -0.0249468 -0.999377 0.706667 -0.706667 0.0352801)
(0.707107 0.707107 -4.18373e-15 0.0219682 -0.0219682 -0.999517 0.706765 -0.706765 0.0310678)
(0.707107 0.707107 -3.51399e-15 0.0194994 -0.0194994 -0.99962 0.706838 -0.706838 0.0275764)
(0.707107 0.707107 -2.99395e-15 0.0174327 -0.0174327 -0.999696 0.706892 -0.706892 0.0246535)
(0.707107 0.707107 -2.58644e-15 0.0156903 -0.0156903 -0.999754 0.706933 -0.706933 0.0221895)
(0.707107 0.707107 -2.2569e-15 0.0142071 -0.0142071 -0.999798 0.706964 -0.706964 0.0200919)
(0.707107 0.707107 -1.99033e-15 0.0129334 -0.0129334 -0.999833 0.706988 -0.706988 0.0182907)
(0.707107 0.707107 -1.77438e-15 0.011833 -0.011833 -0.99986 0.707008 -0.707008 0.0167344)
(0.707107 0.707107 -1.588e-15 0.0108762 -0.0108762 -0.999882 0.707023 -0.707023 0.0153813)
(0.707107 0.707107 -1.42728e-15 0.0100373 -0.0100373 -0.999899 0.707036 -0.707036 0.0141949)
(0.707107 0.707107 -1.29357e-15 0.00929719 -0.00929719 -0.999914 0.707046 -0.707046 0.0131482)
(0.707107 0.707107 -1.18157e-15 0.00864004 -0.00864004 -0.999925 0.707054 -0.707054 0.0122189)
(0.707107 0.707107 -1.0875e-15 0.00805454 -0.00805454 -0.999935 0.707061 -0.707061 0.0113908)
(0.707107 0.707107 -1.01147e-15 0.00753113 -0.00753113 -0.999943 0.707067 -0.707067 0.0106506)
(0.707107 0.707107 -9.43321e-16 0.0070582 -0.0070582 -0.99995 0.707072 -0.707072 0.0099818)
(0.707107 0.707107 -8.77306e-16 0.0066308 -0.0066308 -0.999956 0.707076 -0.707076 0.00937737)
(0.707107 0.707107 -8.1628e-16 0.00624385 -0.00624385 -0.999961 0.707079 -0.707079 0.00883014)
(0.707107 0.707107 -7.62095e-16 0.00589052 -0.00589052 -0.999965 0.707082 -0.707082 0.00833045)
(0.707107 0.707107 -7.09382e-16 0.00556712 -0.00556712 -0.999969 0.707085 -0.707085 0.0078731)
(0.707107 0.707107 -6.63047e-16 0.00527045 -0.00527045 -0.999972 0.707087 -0.707087 0.00745355)
(0.707107 0.707107 -6.25767e-16 0.00499838 -0.00499838 -0.999975 0.707089 -0.707089 0.00706878)
(0.707107 0.707107 -5.89197e-16 0.0047476 -0.0047476 -0.999977 0.707091 -0.707091 0.00671412)
(0.707107 0.707107 -5.50826e-16 0.00451436 -0.00451436 -0.99998 0.707092 -0.707092 0.00638427)
(0.707107 0.707107 -5.19826e-16 0.00429813 -0.00429813 -0.999982 0.707094 -0.707094 0.00607847)
(0.707107 0.707107 -4.94271e-16 0.00409776 -0.00409776 -0.999983 0.707095 -0.707095 0.00579511)
(0.707107 0.707107 -4.64209e-16 0.00391152 -0.00391152 -0.999985 0.707096 -0.707096 0.00553173)
(0.707107 0.707107 -4.40478e-16 0.00373717 -0.00373717 -0.999986 0.707097 -0.707097 0.00528515)
(0.707107 0.707107 -4.1759e-16 0.00357397 -0.00357397 -0.999987 0.707098 -0.707098 0.00505435)
(0.707107 0.707107 -3.92465e-16 0.00342124 -0.00342124 -0.999988 0.707099 -0.707099 0.00483837)
(0.707107 0.707107 -3.7323e-16 0.00327775 -0.00327775 -0.999989 0.707099 -0.707099 0.00463544)
(0.707107 0.707107 -3.52704e-16 0.00314298 -0.00314298 -0.99999 0.7071 -0.7071 0.00444484)
(0.707107 0.707107 -3.26748e-16 0.00301643 -0.00301643 -0.999991 0.7071 -0.7071 0.00426587)
(0.707107 0.707107 -3.02613e-16 0.00289707 -0.00289707 -0.999992 0.707101 -0.707101 0.00409707)
(0.707107 0.707107 -2.81933e-16 0.0027833 -0.0027833 -0.999992 0.707101 -0.707101 0.00393618)
(0.707107 0.707107 -2.61196e-16 0.00267663 -0.00267663 -0.999993 0.707102 -0.707102 0.00378533)
(0.707107 0.707107 -2.31767e-16 0.00257613 -0.00257613 -0.999993 0.707102 -0.707102 0.0036432)
(0.707107 0.707107 -2.16557e-16 0.00247975 -0.00247975 -0.999994 0.707102 -0.707102 0.0035069)
(0.707107 0.707107 -2.14301e-16 0.00238903 -0.00238903 -0.999994 0.707103 -0.707103 0.00337859)
(0.707107 0.707107 -2.06303e-16 0.00230256 -0.00230256 -0.999995 0.707103 -0.707103 0.00325631)
(0.707107 0.707107 -1.9848e-16 0.00222015 -0.00222015 -0.999995 0.707103 -0.707103 0.00313977)
(0.707107 0.707107 -1.85799e-16 0.00214219 -0.00214219 -0.999995 0.707104 -0.707104 0.00302951)
(0.707107 0.707107 -1.74129e-16 0.00206738 -0.00206738 -0.999996 0.707104 -0.707104 0.00292372)
(0.707107 0.707107 -1.66439e-16 0.00199614 -0.00199614 -0.999996 0.707104 -0.707104 0.00282297)
(0.707107 0.707107 -1.63394e-16 0.00192778 -0.00192778 -0.999996 0.707104 -0.707104 0.00272629)
(0.707107 0.707107 -1.60392e-16 0.00186271 -0.00186271 -0.999997 0.707104 -0.707104 0.00263427)
(0.707107 0.707107 -1.51482e-16 0.00180081 -0.00180081 -0.999997 0.707104 -0.707104 0.00254673)
(0.707107 0.707107 -1.43791e-16 0.00174143 -0.00174143 -0.999997 0.707105 -0.707105 0.00246275)
(0.707107 0.707107 -1.37572e-16 0.00168448 -0.00168448 -0.999997 0.707105 -0.707105 0.00238221)
(0.707107 0.707107 -1.23999e-16 0.00162936 -0.00162936 -0.999997 0.707105 -0.707105 0.00230427)
(0.707107 0.707107 -1.14827e-16 0.00157701 -0.00157701 -0.999998 0.707105 -0.707105 0.00223023)
(0.707107 0.707107 -1.21086e-16 0.00152634 -0.00152634 -0.999998 0.707105 -0.707105 0.00215857)
(0.707107 0.707107 -1.22807e-16 0.00147728 -0.00147728 -0.999998 0.707105 -0.707105 0.00208918)
(0.707107 0.707107 -1.11971e-16 0.00143122 -0.00143122 -0.999998 0.707105 -0.707105 0.00202405)
(0.707107 0.707107 -9.91625e-17 0.00138617 -0.00138617 -0.999998 0.707105 -0.707105 0.00196034)
(0.707107 0.707107 -8.8282e-17 0.00134254 -0.00134254 -0.999998 0.707106 -0.707106 0.00189864)
(0.707107 0.707107 -7.93681e-17 0.00130078 -0.00130078 -0.999998 0.707106 -0.707106 0.00183957)
(0.707107 0.707107 -7.49569e-17 0.00126034 -0.00126034 -0.999998 0.707106 -0.707106 0.00178238)
(0.707107 0.707107 -6.69967e-17 0.00122118 -0.00122118 -0.999999 0.707106 -0.707106 0.00172701)
(0.707107 0.707107 -6.0075e-17 0.00118373 -0.00118373 -0.999999 0.707106 -0.707106 0.00167404)
(0.707107 0.707107 -5.9062e-17 0.00114747 -0.00114747 -0.999999 0.707106 -0.707106 0.00162277)
(0.707107 0.707107 -5.93626e-17 0.00111193 -0.00111193 -0.999999 0.707106 -0.707106 0.00157251)
(0.707107 0.707107 -6.72167e-17 0.00107796 -0.00107796 -0.999999 0.707106 -0.707106 0.00152447)
(0.707107 0.707107 -7.34752e-17 0.00104465 -0.00104465 -0.999999 0.707106 -0.707106 0.00147735)
(0.707107 0.707107 -7.2617e-17 0.0010124 -0.0010124 -0.999999 0.707106 -0.707106 0.00143175)
(0.707107 0.707107 -7.75205e-17 0.000981616 -0.000981616 -0.999999 0.707106 -0.707106 0.00138821)
(0.707107 0.707107 -8.3422e-17 0.000951405 -0.000951405 -0.999999 0.707106 -0.707106 0.00134549)
(0.707107 0.707107 -8.53108e-17 0.00092217 -0.00092217 -0.999999 0.707106 -0.707106 0.00130415)
(0.707107 0.707107 -8.24898e-17 0.00089347 -0.00089347 -0.999999 0.707106 -0.707106 0.00126356)
(0.707107 0.707107 -8.1495e-17 0.000865698 -0.000865698 -0.999999 0.707106 -0.707106 0.00122428)
(0.707107 0.707107 -9.24911e-17 0.000838834 -0.000838834 -0.999999 0.707106 -0.707106 0.00118629)
(0.707107 0.707107 -9.56212e-17 0.000812442 -0.000812442 -0.999999 0.707106 -0.707106 0.00114897)
(0.707107 0.707107 -9.03557e-17 0.000786915 -0.000786915 -0.999999 0.707106 -0.707106 0.00111287)
(0.707107 0.707107 -8.31506e-17 0.000761831 -0.000761831 -0.999999 0.707106 -0.707106 0.00107739)
(0.707107 0.707107 -7.31314e-17 0.000737178 -0.000737178 -0.999999 0.707106 -0.707106 0.00104253)
(0.707107 0.707107 -6.62883e-17 0.000713726 -0.000713726 -0.999999 0.707106 -0.707106 0.00100936)
(0.707107 0.707107 -5.82054e-17 0.000690672 -0.000690672 -1 0.707106 -0.707106 0.000976758)
(0.707107 0.707107 -4.61796e-17 0.000667615 -0.000667615 -1 0.707106 -0.707106 0.00094415)
(0.707107 0.707107 -3.69945e-17 0.000645323 -0.000645323 -1 0.707106 -0.707106 0.000912625)
(0.707107 0.707107 -3.67407e-17 0.000623398 -0.000623398 -1 0.707107 -0.707107 0.000881617)
(0.707107 0.707107 -5.02615e-17 0.000602204 -0.000602204 -1 0.707107 -0.707107 0.000851645)
(0.707107 0.707107 -6.8928e-17 0.000581726 -0.000581726 -1 0.707107 -0.707107 0.000822684)
(0.707107 0.707107 -8.21746e-17 0.000561205 -0.000561205 -1 0.707107 -0.707107 0.000793664)
(0.707107 0.707107 -9.01781e-17 0.000541009 -0.000541009 -1 0.707107 -0.707107 0.000765102)
(0.707107 0.707107 -9.43097e-17 0.000521131 -0.000521131 -1 0.707107 -0.707107 0.00073699)
(0.707107 0.707107 -1.02668e-16 0.000501923 -0.000501923 -1 0.707107 -0.707107 0.000709826)
(0.707107 0.707107 -9.50114e-17 0.000483015 -0.000483015 -1 0.707107 -0.707107 0.000683086)
(0.707107 0.707107 -7.80472e-17 0.000464038 -0.000464038 -1 0.707107 -0.707107 0.000656249)
(0.707107 0.707107 -7.14661e-17 0.000445704 -0.000445704 -1 0.707107 -0.707107 0.00063032)
(0.707107 0.707107 -6.40946e-17 0.000427647 -0.000427647 -1 0.707107 -0.707107 0.000604784)
(0.707107 0.707107 -5.7858e-17 0.000409859 -0.000409859 -1 0.707107 -0.707107 0.000579628)
(0.707107 0.707107 -5.8329e-17 0.000391991 -0.000391991 -1 0.707107 -0.707107 0.000554359)
(0.707107 0.707107 -5.28372e-17 0.000374383 -0.000374383 -1 0.707107 -0.707107 0.000529458)
(0.707107 0.707107 -4.19793e-17 0.000357375 -0.000357375 -1 0.707107 -0.707107 0.000505404)
(0.707107 0.707107 -3.94812e-17 0.000340612 -0.000340612 -1 0.707107 -0.707107 0.000481698)
(0.707107 0.707107 -3.31026e-17 0.000323755 -0.000323755 -1 0.707107 -0.707107 0.000457858)
(0.707107 0.707107 -2.12846e-17 0.000307135 -0.000307135 -1 0.707107 -0.707107 0.000434355)
(0.707107 0.707107 -1.7361e-17 0.000290751 -0.000290751 -1 0.707107 -0.707107 0.000411184)
(0.707107 0.707107 -1.97657e-17 0.000274266 -0.000274266 -1 0.707107 -0.707107 0.00038787)
(0.707107 0.707107 -1.75972e-17 0.000258009 -0.000258009 -1 0.707107 -0.707107 0.000364879)
(0.707107 0.707107 -1.47299e-17 0.000241974 -0.000241974 -1 0.707107 -0.707107 0.000342204)
(0.707107 0.707107 -1.96024e-17 0.000226158 -0.000226158 -1 0.707107 -0.707107 0.000319836)
(0.707107 0.707107 -2.04098e-17 0.000210554 -0.000210554 -1 0.707107 -0.707107 0.000297768)
(0.707107 0.707107 -6.37213e-19 0.00019484 -0.00019484 -1 0.707107 -0.707107 0.000275545)
(0.707107 0.707107 4.44231e-18 0.000178699 -0.000178699 -1 0.707107 -0.707107 0.000252719)
(0.707107 0.707107 8.38888e-19 0.000163082 -0.000163082 -1 0.707107 -0.707107 0.000230632)
(0.707107 0.707107 -1.54263e-18 0.00014798 -0.00014798 -1 0.707107 -0.707107 0.000209276)
(0.707107 0.707107 1.7666e-18 0.00013214 -0.00013214 -1 0.707107 -0.707107 0.000186874)
(0.707107 0.707107 2.10699e-17 0.000116495 -0.000116495 -1 0.707107 -0.707107 0.000164749)
(0.707107 0.707107 3.40826e-17 0.000101355 -0.000101355 -1 0.707107 -0.707107 0.000143338)
(0.707107 0.707107 4.00026e-17 8.57901e-05 -8.57901e-05 -1 0.707107 -0.707107 0.000121326)
(0.707107 0.707107 3.36392e-17 7.01097e-05 -7.01097e-05 -1 0.707107 -0.707107 9.915e-05)
(0.707107 0.707107 2.91162e-17 5.49172e-05 -5.49172e-05 -1 0.707107 -0.707107 7.76646e-05)
(0.707107 0.707107 1.94805e-17 3.93072e-05 -3.93072e-05 -1 0.707107 -0.707107 5.55888e-05)
(0.707107 0.707107 1.86156e-17 2.32786e-05 -2.32786e-05 -1 0.707107 -0.707107 3.29209e-05)
(0.707107 0.707107 1.0725e-17 7.73005e-06 -7.73005e-06 -1 0.707107 -0.707107 1.09319e-05)
(0.707107 0.707107 6.26425e-14 0.674509 -0.674509 -0.300125 0.212221 -0.212221 0.9539)
(0.707107 0.707107 4.54646e-17 0.5 -0.5 -0.707107 0.5 -0.5 0.707107)
(0.707107 0.707107 1.17451e-13 0.353295 -0.353295 -0.866236 0.612522 -0.612522 0.499635)
(0.707107 0.707107 4.53707e-14 0.2617 -0.2617 -0.928992 0.656896 -0.656896 0.3701)
(0.707107 0.707107 1.32074e-14 0.203324 -0.203324 -0.957767 0.677244 -0.677244 0.287544)
(0.707107 0.707107 1.30914e-15 0.163578 -0.163578 -0.972874 0.687926 -0.687926 0.231335)
(0.707107 0.707107 -3.01959e-15 0.134901 -0.134901 -0.981633 0.694119 -0.694119 0.190779)
(0.707107 0.707107 -4.28371e-15 0.113302 -0.113302 -0.987079 0.69797 -0.69797 0.160233)
(0.707107 0.707107 -4.34942e-15 0.0965337 -0.0965337 -0.990637 0.700486 -0.700486 0.136519)
(0.707107 0.707107 -4.02085e-15 0.0832299 -0.0832299 -0.993049 0.702191 -0.702191 0.117705)
(0.707107 0.707107 -3.58703e-15 0.0725002 -0.0725002 -0.99473 0.70338 -0.70338 0.102531)
(0.707107 0.707107 -3.14976e-15 0.0637322 -0.0637322 -0.99593 0.704229 -0.704229 0.090131)
(0.707107 0.707107 -2.7667e-15 0.0564884 -0.0564884 -0.996804 0.704847 -0.704847 0.0798867)
(0.707107 0.707107 -2.44106e-15 0.0504426 -0.0504426 -0.997452 0.705305 -0.705305 0.0713366)
(0.707107 0.707107 -2.16809e-15 0.0453503 -0.0453503 -0.997941 0.705651 -0.705651 0.064135)
(0.707107 0.707107 -1.93704e-15 0.0410235 -0.0410235 -0.998316 0.705916 -0.705916 0.058016)
(0.707107 0.707107 -1.75277e-15 0.0373149 -0.0373149 -0.998607 0.706122 -0.706122 0.0527712)
(0.707107 0.707107 -1.59968e-15 0.0341128 -0.0341128 -0.998836 0.706283 -0.706283 0.0482428)
(0.707107 0.707107 -1.45159e-15 0.0313291 -0.0313291 -0.999018 0.706412 -0.706412 0.0443061)
(0.707107 0.707107 -1.33225e-15 0.0288901 -0.0288901 -0.999165 0.706516 -0.706516 0.0408568)
(0.707107 0.707107 -1.21927e-15 0.0267417 -0.0267417 -0.999285 0.706601 -0.706601 0.0378184)
(0.707107 0.707107 -1.11935e-15 0.0248382 -0.0248382 -0.999383 0.70667 -0.70667 0.0351266)
(0.707107 0.707107 -1.04468e-15 0.0231402 -0.0231402 -0.999464 0.706728 -0.706728 0.0327252)
(0.707107 0.707107 -9.8428e-16 0.021621 -0.021621 -0.999532 0.706776 -0.706776 0.0305767)
(0.707107 0.707107 -9.28564e-16 0.0202541 -0.0202541 -0.99959 0.706817 -0.706817 0.0286436)
(0.707107 0.707107 -8.70404e-16 0.0190173 -0.0190173 -0.999638 0.706851 -0.706851 0.0268946)
(0.707107 0.707107 -8.14019e-16 0.0178954 -0.0178954 -0.99968 0.70688 -0.70688 0.0253079)
(0.707107 0.707107 -7.5829e-16 0.0168745 -0.0168745 -0.999715 0.706905 -0.706905 0.0238642)
(0.707107 0.707107 -7.20056e-16 0.0159413 -0.0159413 -0.999746 0.706927 -0.706927 0.0225443)
(0.707107 0.707107 -6.84429e-16 0.0150859 -0.0150859 -0.999772 0.706946 -0.706946 0.0213347)
(0.707107 0.707107 -6.48492e-16 0.0142992 -0.0142992 -0.999796 0.706962 -0.706962 0.0202222)
(0.707107 0.707107 -6.21136e-16 0.0135728 -0.0135728 -0.999816 0.706977 -0.706977 0.0191948)
(0.707107 0.707107 -5.7804e-16 0.0129024 -0.0129024 -0.999834 0.706989 -0.706989 0.0182467)
(0.707107 0.707107 -5.4175e-16 0.0122801 -0.0122801 -0.999849 0.707 -0.707 0.0173667)
(0.707107 0.707107 -5.27243e-16 0.0117021 -0.0117021 -0.999863 0.70701 -0.70701 0.0165492)
(0.707107 0.707107 -5.02286e-16 0.0111646 -0.0111646 -0.999875 0.707019 -0.707019 0.0157892)
(0.707107 0.707107 -4.75474e-16 0.0106624 -0.0106624 -0.999886 0.707026 -0.707026 0.0150788)
(0.707107 0.707107 -4.55956e-16 0.0101938 -0.0101938 -0.999896 0.707033 -0.707033 0.0144162)
(0.707107 0.707107 -4.38705e-16 0.00975478 -0.00975478 -0.999905 0.707039 -0.707039 0.0137953)
(0.707107 0.707107 -4.16791e-16 0.00934153 -0.00934153 -0.999913 0.707045 -0.707045 0.0132109)
(0.707107 0.707107 -3.94671e-16 0.00895481 -0.00895481 -0.99992 0.70705 -0.70705 0.012664)
(0.707107 0.707107 -3.68637e-16 0.00859033 -0.00859033 -0.999926 0.707055 -0.707055 0.0121486)
(0.707107 0.707107 -3.45407e-16 0.00824625 -0.00824625 -0.999932 0.707059 -0.707059 0.011662)
(0.707107 0.707107 -3.31763e-16 0.00792291 -0.00792291 -0.999937 0.707062 -0.707062 0.0112047)
(0.707107 0.707107 -3.13875e-16 0.00761661 -0.00761661 -0.999942 0.707066 -0.707066 0.0107715)
(0.707107 0.707107 -2.88489e-16 0.00732588 -0.00732588 -0.999946 0.707069 -0.707069 0.0103604)
(0.707107 0.707107 -2.74106e-16 0.00705061 -0.00705061 -0.99995 0.707072 -0.707072 0.00997107)
(0.707107 0.707107 -2.74715e-16 0.00679016 -0.00679016 -0.999954 0.707074 -0.707074 0.00960274)
(0.707107 0.707107 -2.68262e-16 0.00654261 -0.00654261 -0.999957 0.707077 -0.707077 0.00925265)
(0.707107 0.707107 -2.54484e-16 0.00630662 -0.00630662 -0.99996 0.707079 -0.707079 0.00891891)
(0.707107 0.707107 -2.42646e-16 0.00608304 -0.00608304 -0.999963 0.707081 -0.707081 0.00860272)
(0.707107 0.707107 -2.38883e-16 0.00586953 -0.00586953 -0.999966 0.707082 -0.707082 0.00830077)
(0.707107 0.707107 -2.29587e-16 0.00566504 -0.00566504 -0.999968 0.707084 -0.707084 0.00801157)
(0.707107 0.707107 -2.20824e-16 0.00547104 -0.00547104 -0.99997 0.707086 -0.707086 0.00773722)
(0.707107 0.707107 -2.16514e-16 0.00528527 -0.00528527 -0.999972 0.707087 -0.707087 0.0074745)
(0.707107 0.707107 -2.03673e-16 0.00510684 -0.00510684 -0.999974 0.707088 -0.707088 0.00722216)
(0.707107 0.707107 -1.99521e-16 0.00493667 -0.00493667 -0.999976 0.70709 -0.70709 0.0069815)
(0.707107 0.707107 -1.9479e-16 0.00477384 -0.00477384 -0.999977 0.707091 -0.707091 0.00675123)
(0.707107 0.707107 -1.86853e-16 0.0046176 -0.0046176 -0.999979 0.707092 -0.707092 0.00653028)
(0.707107 0.707107 -1.81242e-16 0.00446702 -0.00446702 -0.99998 0.707093 -0.707093 0.00631732)
(0.707107 0.707107 -1.84769e-16 0.00432257 -0.00432257 -0.999981 0.707094 -0.707094 0.00611303)
(0.707107 0.707107 -1.85438e-16 0.0041845 -0.0041845 -0.999982 0.707094 -0.707094 0.00591777)
(0.707107 0.707107 -1.66642e-16 0.00405104 -0.00405104 -0.999984 0.707095 -0.707095 0.00572904)
(0.707107 0.707107 -1.56011e-16 0.00392254 -0.00392254 -0.999985 0.707096 -0.707096 0.0055473)
(0.707107 0.707107 -1.54959e-16 0.00379933 -0.00379933 -0.999986 0.707097 -0.707097 0.00537307)
(0.707107 0.707107 -1.41389e-16 0.00367972 -0.00367972 -0.999986 0.707097 -0.707097 0.00520392)
(0.707107 0.707107 -1.31656e-16 0.00356461 -0.00356461 -0.999987 0.707098 -0.707098 0.00504112)
(0.707107 0.707107 -1.31111e-16 0.00345383 -0.00345383 -0.999988 0.707098 -0.707098 0.00488445)
(0.707107 0.707107 -1.22876e-16 0.00334677 -0.00334677 -0.999989 0.707099 -0.707099 0.00473305)
(0.707107 0.707107 -1.19451e-16 0.00324283 -0.00324283 -0.999989 0.707099 -0.707099 0.00458606)
(0.707107 0.707107 -1.19494e-16 0.00314235 -0.00314235 -0.99999 0.7071 -0.7071 0.00444396)
(0.707107 0.707107 -1.25419e-16 0.00304577 -0.00304577 -0.999991 0.7071 -0.7071 0.00430738)
(0.707107 0.707107 -1.29558e-16 0.00295151 -0.00295151 -0.999991 0.707101 -0.707101 0.00417406)
(0.707107 0.707107 -1.18057e-16 0.00285994 -0.00285994 -0.999992 0.707101 -0.707101 0.00404457)
(0.707107 0.707107 -1.15961e-16 0.00277153 -0.00277153 -0.999992 0.707101 -0.707101 0.00391954)
(0.707107 0.707107 -1.30347e-16 0.00268616 -0.00268616 -0.999993 0.707102 -0.707102 0.0037988)
(0.707107 0.707107 -1.35545e-16 0.00260276 -0.00260276 -0.999993 0.707102 -0.707102 0.00368086)
(0.707107 0.707107 -1.28418e-16 0.00252132 -0.00252132 -0.999994 0.707102 -0.707102 0.00356568)
(0.707107 0.707107 -1.24157e-16 0.00244271 -0.00244271 -0.999994 0.707103 -0.707103 0.00345452)
(0.707107 0.707107 -1.31147e-16 0.00236639 -0.00236639 -0.999994 0.707103 -0.707103 0.00334658)
(0.707107 0.707107 -1.36699e-16 0.00229183 -0.00229183 -0.999995 0.707103 -0.707103 0.00324113)
(0.707107 0.707107 -1.33994e-16 0.00221901 -0.00221901 -0.999995 0.707103 -0.707103 0.00313815)
(0.707107 0.707107 -1.2506e-16 0.00214786 -0.00214786 -0.999995 0.707104 -0.707104 0.00303753)
(0.707107 0.707107 -1.12711e-16 0.00207878 -0.00207878 -0.999996 0.707104 -0.707104 0.00293983)
(0.707107 0.707107 -1.07049e-16 0.00201175 -0.00201175 -0.999996 0.707104 -0.707104 0.00284504)
(0.707107 0.707107 -1.03048e-16 0.00194625 -0.00194625 -0.999996 0.707104 -0.707104 0.00275241)
(0.707107 0.707107 -9.40981e-17 0.00188181 -0.00188181 -0.999996 0.707104 -0.707104 0.00266128)
(0.707107 0.707107 -8.04713e-17 0.00181839 -0.00181839 -0.999997 0.707104 -0.707104 0.0025716)
(0.707107 0.707107 -7.54821e-17 0.00175686 -0.00175686 -0.999997 0.707105 -0.707105 0.00248458)
(0.707107 0.707107 -8.97262e-17 0.00169715 -0.00169715 -0.999997 0.707105 -0.707105 0.00240013)
(0.707107 0.707107 -1.07402e-16 0.00163796 -0.00163796 -0.999997 0.707105 -0.707105 0.00231643)
(0.707107 0.707107 -1.09684e-16 0.00157968 -0.00157968 -0.999998 0.707105 -0.707105 0.00223401)
(0.707107 0.707107 -1.11921e-16 0.00152355 -0.00152355 -0.999998 0.707105 -0.707105 0.00215463)
(0.707107 0.707107 -1.19727e-16 0.00146788 -0.00146788 -0.999998 0.707105 -0.707105 0.0020759)
(0.707107 0.707107 -1.23856e-16 0.00141262 -0.00141262 -0.999998 0.707105 -0.707105 0.00199774)
(0.707107 0.707107 -1.20211e-16 0.00135901 -0.00135901 -0.999998 0.707105 -0.707105 0.00192194)
(0.707107 0.707107 -1.05193e-16 0.00130662 -0.00130662 -0.999998 0.707106 -0.707106 0.00184784)
(0.707107 0.707107 -9.94701e-17 0.00125459 -0.00125459 -0.999998 0.707106 -0.707106 0.00177426)
(0.707107 0.707107 -9.43877e-17 0.00120332 -0.00120332 -0.999999 0.707106 -0.707106 0.00170175)
(0.707107 0.707107 -8.90503e-17 0.00115279 -0.00115279 -0.999999 0.707106 -0.707106 0.00163029)
(0.707107 0.707107 -9.54302e-17 0.00110301 -0.00110301 -0.999999 0.707106 -0.707106 0.00155989)
(0.707107 0.707107 -8.85074e-17 0.00105393 -0.00105393 -0.999999 0.707106 -0.707106 0.00149048)
(0.707107 0.707107 -8.25747e-17 0.00100554 -0.00100554 -0.999999 0.707106 -0.707106 0.00142205)
(0.707107 0.707107 -7.90743e-17 0.000957841 -0.000957841 -0.999999 0.707106 -0.707106 0.00135459)
(0.707107 0.707107 -6.6427e-17 0.000910036 -0.000910036 -0.999999 0.707106 -0.707106 0.00128699)
(0.707107 0.707107 -6.42977e-17 0.00086328 -0.00086328 -0.999999 0.707106 -0.707106 0.00122086)
(0.707107 0.707107 -5.88677e-17 0.000817543 -0.000817543 -0.999999 0.707106 -0.707106 0.00115618)
(0.707107 0.707107 -5.41762e-17 0.000771304 -0.000771304 -0.999999 0.707106 -0.707106 0.00109079)
(0.707107 0.707107 -5.68016e-17 0.000725684 -0.000725684 -0.999999 0.707106 -0.707106 0.00102627)
(0.707107 0.707107 -5.3277e-17 0.000680679 -0.000680679 -1 0.707106 -0.707106 0.000962626)
(0.707107 0.707107 -5.03554e-17 0.000635898 -0.000635898 -1 0.707106 -0.707106 0.000899296)
(0.707107 0.707107 -5.06494e-17 0.000591346 -0.000591346 -1 0.707107 -0.707107 0.00083629)
(0.707107 0.707107 -3.34555e-17 0.000547006 -0.000547006 -1 0.707107 -0.707107 0.000773583)
(0.707107 0.707107 -2.26662e-17 0.000502876 -0.000502876 -1 0.707107 -0.707107 0.000711175)
(0.707107 0.707107 -2.94422e-17 0.000458951 -0.000458951 -1 0.707107 -0.707107 0.000649054)
(0.707107 0.707107 -2.50565e-17 0.000415228 -0.000415228 -1 0.707107 -0.707107 0.000587222)
(0.707107 0.707107 -9.11324e-18 0.000371341 -0.000371341 -1 0.707107 -0.707107 0.000525156)
(0.707107 0.707107 4.63392e-18 0.000327996 -0.000327996 -1 0.707107 -0.707107 0.000463856)
(0.707107 0.707107 1.57424e-17 0.000284482 -0.000284482 -1 0.707107 -0.707107 0.000402318)
(0.707107 0.707107 2.17959e-17 0.000240794 -0.000240794 -1 0.707107 -0.707107 0.000340535)
(0.707107 0.707107 1.99022e-17 0.000197633 -0.000197633 -1 0.707107 -0.707107 0.000279495)
(0.707107 0.707107 1.39204e-17 0.000153946 -0.000153946 -1 0.707107 -0.707107 0.000217712)
(0.707107 0.707107 3.45245e-18 0.000109736 -0.000109736 -1 0.707107 -0.707107 0.000155191)
(0.707107 0.707107 9.29165e-18 6.60372e-05 -6.60372e-05 -1 0.707107 -0.707107 9.33906e-05)
(0.707107 0.707107 8.96259e-18 2.21565e-05 -2.21565e-05 -1 0.707107 -0.707107 3.13341e-05)
(0.707107 0.707107 3.79178e-14 0.695454 -0.695454 -0.180795 0.127842 -0.127842 0.983521)
(0.707107 0.707107 -1.1739e-13 0.612522 -0.612522 -0.499635 0.353295 -0.353295 0.866236)
(0.707107 0.707107 1.40973e-17 0.5 -0.5 -0.707107 0.5 -0.5 0.707107)
(0.707107 0.707107 2.7804e-14 0.400881 -0.400881 -0.823765 0.58249 -0.58249 0.566932)
(0.707107 0.707107 2.28304e-14 0.324468 -0.324468 -0.888505 0.628268 -0.628268 0.458867)
(0.707107 0.707107 1.39187e-14 0.266748 -0.266748 -0.926116 0.654863 -0.654863 0.377239)
(0.707107 0.707107 7.36452e-15 0.222642 -0.222642 -0.949137 0.671141 -0.671141 0.314863)
(0.707107 0.707107 3.4677e-15 0.188339 -0.188339 -0.963876 0.681563 -0.681563 0.266352)
(0.707107 0.707107 1.36437e-15 0.161219 -0.161219 -0.973662 0.688483 -0.688483 0.227998)
(0.707107 0.707107 2.72376e-16 0.139473 -0.139473 -0.980354 0.693215 -0.693215 0.197244)
(0.707107 0.707107 -2.65026e-16 0.121824 -0.121824 -0.985047 0.696533 -0.696533 0.172285)
(0.707107 0.707107 -4.90764e-16 0.107338 -0.107338 -0.988411 0.698912 -0.698912 0.151799)
(0.707107 0.707107 -5.71408e-16 0.0953246 -0.0953246 -0.990872 0.700652 -0.700652 0.134809)
(0.707107 0.707107 -5.83046e-16 0.085269 -0.085269 -0.992703 0.701947 -0.701947 0.120589)
(0.707107 0.707107 -5.52962e-16 0.0767777 -0.0767777 -0.994088 0.702926 -0.702926 0.10858)
(0.707107 0.707107 -5.06781e-16 0.0695421 -0.0695421 -0.995152 0.703679 -0.703679 0.0983473)
(0.707107 0.707107 -4.64258e-16 0.0633282 -0.0633282 -0.995981 0.704265 -0.704265 0.0895595)
(0.707107 0.707107 -4.26731e-16 0.0579512 -0.0579512 -0.996636 0.704728 -0.704728 0.0819554)
(0.707107 0.707107 -3.72649e-16 0.0532667 -0.0532667 -0.997159 0.705098 -0.705098 0.0753305)
(0.707107 0.707107 -3.23973e-16 0.0491589 -0.0491589 -0.99758 0.705396 -0.705396 0.0695212)
(0.707107 0.707107 -2.83959e-16 0.0455312 -0.0455312 -0.997925 0.705639 -0.705639 0.0643908)
(0.707107 0.707107 -2.41924e-16 0.0423115 -0.0423115 -0.998208 0.70584 -0.70584 0.0598375)
(0.707107 0.707107 -2.04067e-16 0.0394404 -0.0394404 -0.998443 0.706006 -0.706006 0.0557772)
(0.707107 0.707107 -1.77457e-16 0.0368636 -0.0368636 -0.99864 0.706145 -0.706145 0.052133)
(0.707107 0.707107 -1.51869e-16 0.034543 -0.034543 -0.998806 0.706263 -0.706263 0.0488512)
(0.707107 0.707107 -1.22331e-16 0.0324445 -0.0324445 -0.998947 0.706362 -0.706362 0.0458835)
(0.707107 0.707107 -9.17404e-17 0.0305393 -0.0305393 -0.999067 0.706447 -0.706447 0.043189)
(0.707107 0.707107 -4.75025e-17 0.028802 -0.028802 -0.99917 0.70652 -0.70652 0.0407322)
(0.707107 0.707107 -3.0205e-17 0.0272121 -0.0272121 -0.999259 0.706583 -0.706583 0.0384838)
(0.707107 0.707107 -3.23067e-17 0.025755 -0.025755 -0.999336 0.706638 -0.706638 0.0364231)
(0.707107 0.707107 -2.50041e-17 0.0244139 -0.0244139 -0.999404 0.706685 -0.706685 0.0345264)
(0.707107 0.707107 -1.56859e-17 0.0231764 -0.0231764 -0.999463 0.706727 -0.706727 0.0327764)
(0.707107 0.707107 2.04933e-17 0.0220322 -0.0220322 -0.999514 0.706763 -0.706763 0.0311582)
(0.707107 0.707107 5.34257e-17 0.02097 -0.02097 -0.99956 0.706796 -0.706796 0.029656)
(0.707107 0.707107 4.60201e-17 0.0199835 -0.0199835 -0.999601 0.706824 -0.706824 0.0282609)
(0.707107 0.707107 4.33911e-17 0.0190645 -0.0190645 -0.999636 0.70685 -0.70685 0.0269613)
(0.707107 0.707107 6.42834e-17 0.0182064 -0.0182064 -0.999668 0.706872 -0.706872 0.0257477)
(0.707107 0.707107 6.38517e-17 0.0174066 -0.0174066 -0.999697 0.706893 -0.706893 0.0246167)
(0.707107 0.707107 5.23849e-17 0.0166563 -0.0166563 -0.999723 0.706911 -0.706911 0.0235556)
(0.707107 0.707107 6.46938e-17 0.0159463 -0.0159463 -0.999746 0.706927 -0.706927 0.0225514)
(0.707107 0.707107 7.10107e-17 0.0152822 -0.0152822 -0.999766 0.706942 -0.706942 0.0216124)
(0.707107 0.707107 7.9775e-17 0.0146619 -0.0146619 -0.999785 0.706955 -0.706955 0.020735)
(0.707107 0.707107 9.91121e-17 0.0140753 -0.0140753 -0.999802 0.706967 -0.706967 0.0199055)
(0.707107 0.707107 9.59377e-17 0.0135212 -0.0135212 -0.999817 0.706977 -0.706977 0.0191218)
(0.707107 0.707107 8.86742e-17 0.0129976 -0.0129976 -0.999831 0.706987 -0.706987 0.0183814)
(0.707107 0.707107 9.44195e-17 0.0125033 -0.0125033 -0.999844 0.706996 -0.706996 0.0176823)
(0.707107 0.707107 1.03947e-16 0.0120299 -0.0120299 -0.999855 0.707004 -0.707004 0.0170128)
(0.707107 0.707107 9.75046e-17 0.0115761 -0.0115761 -0.999866 0.707012 -0.707012 0.0163711)
(0.707107 0.707107 9.00732e-17 0.0111554 -0.0111554 -0.999876 0.707019 -0.707019 0.0157761)
(0.707107 0.707107 9.11266e-17 0.0107593 -0.0107593 -0.999884 0.707025 -0.707025 0.015216)
(0.707107 0.707107 9.5854e-17 0.0103734 -0.0103734 -0.999892 0.707031 -0.707031 0.0146702)
(0.707107 0.707107 9.56047e-17 0.0100037 -0.0100037 -0.9999 0.707036 -0.707036 0.0141473)
(0.707107 0.707107 9.74985e-17 0.00964975 -0.00964975 -0.999907 0.707041 -0.707041 0.0136468)
(0.707107 0.707107 1.07231e-16 0.00931735 -0.00931735 -0.999913 0.707045 -0.707045 0.0131767)
(0.707107 0.707107 9.89062e-17 0.00900583 -0.00900583 -0.999919 0.707049 -0.707049 0.0127362)
(0.707107 0.707107 1.07147e-16 0.00870146 -0.00870146 -0.999924 0.707053 -0.707053 0.0123057)
(0.707107 0.707107 1.18932e-16 0.00841037 -0.00841037 -0.999929 0.707057 -0.707057 0.0118941)
(0.707107 0.707107 1.14695e-16 0.00812579 -0.00812579 -0.999934 0.70706 -0.70706 0.0114916)
(0.707107 0.707107 1.17467e-16 0.00785983 -0.00785983 -0.999938 0.707063 -0.707063 0.0111155)
(0.707107 0.707107 1.15373e-16 0.00760598 -0.00760598 -0.999942 0.707066 -0.707066 0.0107565)
(0.707107 0.707107 9.47881e-17 0.0073574 -0.0073574 -0.999946 0.707069 -0.707069 0.0104049)
(0.707107 0.707107 9.47248e-17 0.00712006 -0.00712006 -0.999949 0.707071 -0.707071 0.0100693)
(0.707107 0.707107 1.26903e-16 0.00688762 -0.00688762 -0.999953 0.707073 -0.707073 0.00974056)