/*--------------------------------*- C++ -*----------------------------------*\
  =========                 |
  \\      /  F ield         | OpenFOAM: The Open Source CFD Toolbox
   \\    /   O peration     | Website:  https://openfoam.org
    \\  /    A nd           | Version:  6
     \\/     M anipulation  |
\*---------------------------------------------------------------------------*/
FoamFile
{
    version     2.0;
    format      ascii;
    class       volSymmTensorField;
    location    "97.86";
    object      turbulenceProperties:R;
}
// * * * * * * * * * * * * * * * * * * * * * * * * * * * * * * * * * * * * * //

dimensions      [0 2 -2 0 0 0 0];

internalField   nonuniform List<symmTensor> 
15625
(
(6.312337509089631e-08 -1.0428393702998803e-11 -1.0428393702998774e-11 -1.4945802239550457e-12 -1.4781367819333684e-11 -1.4945802239550294e-12)
(2.7284062703220864e-07 -2.7521934849978115e-10 -4.007663497445109e-11 1.704730352970942e-10 -1.8086277245699337e-11 5.222310982365412e-12)
(4.4542726631425586e-07 -1.043329908027708e-09 -4.0779425282644595e-11 9.155129509487744e-10 -7.417112275941879e-11 2.121006162131318e-11)
(5.745639725901248e-07 -2.1619452795410364e-09 -5.6436857955568326e-11 2.670996364621754e-09 -1.9678085914736603e-10 4.500990582237484e-11)
(6.784640964441592e-07 -3.310127548337789e-09 -8.593290689440917e-11 6.514891612132412e-09 -4.4458063049890726e-10 7.088393587178829e-11)
(7.738118963055715e-07 -4.325237185825745e-09 -1.382334844078741e-10 1.3257784432240489e-08 -8.110760035631574e-10 9.834294643953246e-11)
(8.725680040780657e-07 -5.208404830677927e-09 -2.0573471305283704e-10 2.3927473056904873e-08 -1.30019561474454e-09 1.2686036054972941e-10)
(9.831510168586976e-07 -6.123381516332619e-09 -2.8435203115691993e-10 3.952174833689029e-08 -1.908798046285348e-09 1.5489013192861756e-10)
(1.1114087541807264e-06 -7.358386901610201e-09 -3.8750429939993545e-10 6.079489612711117e-08 -2.611022817418403e-09 1.8208037740953594e-10)
(1.2615764799948654e-06 -9.163476115071453e-09 -5.374157264918126e-10 8.840729266521696e-08 -3.3879203438292936e-09 2.0843555539803903e-10)
(1.4371330508509789e-06 -1.1711012359492182e-08 -7.639499377470168e-10 1.228769780258779e-07 -4.220608665456469e-09 2.3408971075493793e-10)
(1.6410062516857062e-06 -1.5007597822767692e-08 -1.109017977497047e-09 1.6442849261515514e-07 -5.08318815474328e-09 2.59249168237057e-10)
(1.8756360211640328e-06 -1.887514634830798e-08 -1.614762498278645e-09 2.131241087428089e-07 -5.951849282625806e-09 2.841890999521679e-10)
(2.1428177602236892e-06 -2.2836213723974143e-08 -2.3192759283421904e-09 2.68837380770152e-07 -6.810417948348732e-09 3.093165945320829e-10)
(2.443959227975087e-06 -2.624949625311536e-08 -3.2534801516896916e-09 3.3137248636244005e-07 -7.645311148381518e-09 3.349479779894485e-10)
(2.779408996777976e-06 -2.821001124018515e-08 -4.4324263952717974e-09 4.0036287286923994e-07 -8.445798174417312e-09 3.611343834519875e-10)
(3.1489151934887948e-06 -2.773922874505227e-08 -5.862070795457356e-09 4.753912808980768e-07 -9.202814851102494e-09 3.8785106445679623e-10)
(3.55094970299795e-06 -2.377985936865456e-08 -7.524732348214753e-09 5.56032685725903e-07 -9.912969415304475e-09 4.1494564285906217e-10)
(3.983456243023773e-06 -1.5258837983876892e-08 -9.394739053164895e-09 6.418367695443603e-07 -1.0574097318850732e-08 4.422193324243482e-10)
(4.443264899744212e-06 -1.3193919477795574e-09 -1.1427855064637015e-08 7.323897848256319e-07 -1.1186300160614961e-08 4.693953775314016e-10)
(4.926635961468962e-06 1.8793181951860987e-08 -1.3569633091297665e-08 8.273059385853819e-07 -1.1750964489577454e-08 4.961547800409282e-10)
(5.429334495416686e-06 4.558785247697642e-08 -1.576396254124696e-08 9.261936208169299e-07 -1.2268341605054587e-08 5.221057168755855e-10)
(5.946899444087055e-06 7.917975106446876e-08 -1.7955462877437922e-08 1.0287582741729267e-06 -1.27373188250024e-08 5.467705199744911e-10)
(6.474398595725574e-06 1.195756192668141e-07 -2.008708630231384e-08 1.1346330241370286e-06 -1.315597073791966e-08 5.696562588921813e-10)
(7.0074586935505894e-06 1.6638318358997323e-07 -2.2113495259036386e-08 1.243497841308669e-06 -1.3519934127197336e-08 5.904699981692176e-10)
(7.541491779909477e-06 2.189692539207026e-07 -2.3992806293557234e-08 1.3549658392281854e-06 -1.3823202824783735e-08 6.089967260914364e-10)
(8.072288279784823e-06 2.766189126423698e-07 -2.5690891346924012e-08 1.4686500538368933e-06 -1.4060012629301522e-08 6.251414406952848e-10)
(8.596378542597533e-06 3.383647669207275e-07 -2.719646292803526e-08 1.5840523917071222e-06 -1.4225274962624221e-08 6.391470799292768e-10)
(9.110625784826665e-06 4.0319695557456514e-07 -2.8503138192036936e-08 1.700700670331501e-06 -1.4314051050831952e-08 6.513349233367561e-10)
(9.612075782837727e-06 4.7005716301746285e-07 -2.9608492957148062e-08 1.8180306858335529e-06 -1.4323897814779031e-08 6.620471003586579e-10)
(1.0098986718683694e-05 5.379422368342766e-07 -3.051843575731591e-08 1.9355464809418612e-06 -1.4256394914303345e-08 6.716727131467161e-10)
(1.0569279580884709e-05 6.057713559432257e-07 -3.123924003116384e-08 2.0526455129585783e-06 -1.4113608189071853e-08 6.806050753017989e-10)
(1.1021727638383207e-05 6.725944517627798e-07 -3.1785284856798636e-08 2.1688020922999715e-06 -1.3899289461880499e-08 6.891730437366796e-10)
(1.1455968953089903e-05 7.375987540725192e-07 -3.2179205864384274e-08 2.2835685337015797e-06 -1.3618858202378666e-08 6.976356186440651e-10)
(1.1871486230468112e-05 7.999329865582315e-07 -3.2444420423060436e-08 2.3964365442477627e-06 -1.3278172234362656e-08 7.06254913319599e-10)
(1.2268323921812796e-05 8.589688237088367e-07 -3.260271660406399e-08 2.5070084121694793e-06 -1.2884242657935865e-08 7.15340400250695e-10)
(1.2646800521509694e-05 9.142429224156392e-07 -3.267432913862197e-08 2.614921227268982e-06 -1.2445348125388587e-08 7.252406039923997e-10)
(1.3007396894051117e-05 9.653114164159243e-07 -3.2680005005533055e-08 2.719844340145846e-06 -1.197000957964042e-08 7.36309498464091e-10)
(1.3350791192393117e-05 1.0118907200483857e-06 -3.263771579056989e-08 2.8215663857276845e-06 -1.1467819529863438e-08 7.487138117219413e-10)
(1.3677955425302719e-05 1.0538638053083495e-06 -3.256284613874608e-08 2.9200191760565226e-06 -1.094928326065385e-08 7.62445614925586e-10)
(1.3989812274607235e-05 1.0911071595376995e-06 -3.2471026606191326e-08 3.0151120084257383e-06 -1.0425334177378099e-08 7.774863619349885e-10)
(1.4287428106667135e-05 1.123570794477604e-06 -3.237255293814253e-08 3.1068631165344734e-06 -9.903720509247354e-09 7.938464687985134e-10)
(1.4571834570824285e-05 1.1512688924739195e-06 -3.227132085292231e-08 3.195360277825087e-06 -9.388657764577377e-09 8.115615705646289e-10)
(1.4844227442938238e-05 1.1742342891518303e-06 -3.217094362711114e-08 3.2807394526293054e-06 -8.884038509318273e-09 8.306761822289702e-10)
(1.510567634203224e-05 1.192497859122509e-06 -3.207557772555707e-08 3.363116479953562e-06 -8.392454285070966e-09 8.511359951814144e-10)
(1.535711517909268e-05 1.2061007402554066e-06 -3.199020346236768e-08 3.4426040920670955e-06 -7.913909029596722e-09 8.727171978151514e-10)
(1.559957447533549e-05 1.2150931592231768e-06 -3.192000672940729e-08 3.519343874899756e-06 -7.4479897674827e-09 8.951777687183199e-10)
(1.5834032866079214e-05 1.2195536094255268e-06 -3.187100679835521e-08 3.5934396056563406e-06 -6.994152477791128e-09 9.183629437749088e-10)
(1.6061571533516224e-05 1.2196514059645621e-06 -3.185137144324914e-08 3.6649740060094046e-06 -6.550826258488433e-09 9.424385537827427e-10)
(1.628310448275223e-05 1.2155779213442853e-06 -3.186993813252035e-08 3.7339596276208484e-06 -6.1166170352832565e-09 9.676154621777253e-10)
(1.6499763796478632e-05 1.2075598287552276e-06 -3.193613025094447e-08 3.800473717686929e-06 -5.690587586482634e-09 9.941136854928975e-10)
(1.6712529081249995e-05 1.1960225925267838e-06 -3.2061628598438426e-08 3.864573457001794e-06 -5.277841241260701e-09 1.0220219423331335e-09)
(1.6922519579413624e-05 1.1814776608928802e-06 -3.2259337322802234e-08 3.926365340590869e-06 -4.885746264209664e-09 1.0513978678538403e-09)
(1.7130781709981597e-05 1.1644562513834152e-06 -3.2541517571374356e-08 3.985940285455792e-06 -4.521877130438083e-09 1.0822704218861933e-09)
(1.733801350762043e-05 1.1454329725327814e-06 -3.290209295403531e-08 4.0435310092222424e-06 -4.1899493236694285e-09 1.1143338101217685e-09)
(1.7544513879129103e-05 1.1248377202798782e-06 -3.3317989330158885e-08 4.0994781168164476e-06 -3.890283593778214e-09 1.1469613915810953e-09)
(1.7750579466337392e-05 1.1031131097224432e-06 -3.376481519818943e-08 4.154137907634558e-06 -3.6230564509209223e-09 1.1794964383694502e-09)
(1.7956565837577936e-05 1.080640451377806e-06 -3.423004445580623e-08 4.207777279811816e-06 -3.3858898515346017e-09 1.2116106446545965e-09)
(1.816297004619071e-05 1.05764839122527e-06 -3.4727719968356757e-08 4.260462847076342e-06 -3.1708912389775884e-09 1.2437121538471235e-09)
(1.8370264325112866e-05 1.0343588474552085e-06 -3.527564804549173e-08 4.312222290406068e-06 -2.9692629304179555e-09 1.2763091000948413e-09)
(1.85788299304019e-05 1.0110200879997952e-06 -3.5888817433529266e-08 4.363126728250626e-06 -2.774336770853029e-09 1.3098717502914084e-09)
(1.8787839824839895e-05 9.88066097648298e-07 -3.6560665309528975e-08 4.413359385329458e-06 -2.594445923663148e-09 1.3444637568062066e-09)
(1.8996069242607608e-05 9.660020683271222e-07 -3.727641093346186e-08 4.46317192568914e-06 -2.4438015239816934e-09 1.3800068868677275e-09)
(1.92022431355868e-05 9.453352881745114e-07 -3.802040741264365e-08 4.512820263502025e-06 -2.3366645927237706e-09 1.4164121969967117e-09)
(1.9405487564384914e-05 9.261591735465041e-07 -3.877044842689995e-08 4.562612104555484e-06 -2.2767200347773948e-09 1.4535113821213655e-09)
(1.9605459921984655e-05 9.081177114930449e-07 -3.949778137810966e-08 4.612935227826218e-06 -2.2563878286282743e-09 1.491071237245599e-09)
(1.9801775116692394e-05 8.908273626944679e-07 -4.0172207429231564e-08 4.66417981463742e-06 -2.2673260518610036e-09 1.528837562736963e-09)
(1.9994212643294088e-05 8.737558429755419e-07 -4.076905336351539e-08 4.716641258122056e-06 -2.3003097579126292e-09 1.5665700978677732e-09)
(2.018318805857317e-05 8.559403883665852e-07 -4.128264243377158e-08 4.770336556587538e-06 -2.3440859127014913e-09 1.6041114341799137e-09)
(2.0369239602264984e-05 8.363100606079238e-07 -4.171073102170362e-08 4.825227396020867e-06 -2.3867021107390848e-09 1.6413136710965048e-09)
(2.055294155942254e-05 8.138364799082558e-07 -4.205400660572461e-08 4.881253059258175e-06 -2.4170955070182487e-09 1.67805564704684e-09)
(2.0735583429178213e-05 7.882117733006721e-07 -4.234512940949976e-08 4.9382914933735815e-06 -2.43733406622134e-09 1.7146435758292458e-09)
(2.0918858626111554e-05 7.595699844802101e-07 -4.2636633543339116e-08 4.996166261530586e-06 -2.457525789635212e-09 1.7516387988270025e-09)
(2.110454181912065e-05 7.280544154822938e-07 -4.2982819316493524e-08 5.054702204357308e-06 -2.4881456794879815e-09 1.789623816898582e-09)
(2.1294109086743263e-05 6.939453365595915e-07 -4.3415192013586445e-08 5.113784921206643e-06 -2.533388566461695e-09 1.8287416984249842e-09)
(2.1488592987972664e-05 6.577377773441963e-07 -4.3924209902011904e-08 5.173449839418397e-06 -2.5862081287398185e-09 1.868376550717602e-09)
(2.168898366500781e-05 6.19969217818128e-07 -4.4495784011810625e-08 5.2337399281374976e-06 -2.638191034992187e-09 1.907810624144245e-09)
(2.1896171864475188e-05 5.811253174403288e-07 -4.511567195031941e-08 5.294656040945257e-06 -2.6811229723743766e-09 1.946414728081689e-09)
(2.2110399968488813e-05 5.413061494313906e-07 -4.577125150645551e-08 5.355971928577487e-06 -2.709213086759505e-09 1.9841741002699643e-09)
(2.2331564232405156e-05 5.004985287654558e-07 -4.644982889930987e-08 5.417341028852455e-06 -2.7173931235187652e-09 2.021272247380006e-09)
(2.2559670655301464e-05 4.586887463155802e-07 -4.7139394718166866e-08 5.478429829546026e-06 -2.7008759334000053e-09 2.057922446155237e-09)
(2.2795667427609942e-05 4.161934443450676e-07 -4.7848705126285276e-08 5.538959460006553e-06 -2.664977621345011e-09 2.0945660095695178e-09)
(2.3041440527872632e-05 3.7368788171958625e-07 -4.8608272376729995e-08 5.598695341444533e-06 -2.6256961649423678e-09 2.131876448478745e-09)
(2.3299034440647977e-05 3.31875268176073e-07 -4.945074873972872e-08 5.657412640722594e-06 -2.6000316562383194e-09 2.1705682980702585e-09)
(2.3569347518214025e-05 2.913056729244076e-07 -5.038923870452573e-08 5.715025866118092e-06 -2.5993719562994987e-09 2.2108940142183067e-09)
(2.3849662719799707e-05 2.5203434285623214e-07 -5.137616929018879e-08 5.771867729719898e-06 -2.6172377244952052e-09 2.2516718199473137e-09)
(2.4136605591952776e-05 2.1400862002506304e-07 -5.235149386732671e-08 5.828381759595363e-06 -2.643580768796668e-09 2.291430498447927e-09)
(2.442688994927076e-05 1.771853058517934e-07 -5.3259823199898255e-08 5.884947165634297e-06 -2.668452942901672e-09 2.328802729534794e-09)
(2.4720358339808368e-05 1.4145258403483782e-07 -5.411126491950613e-08 5.941470161210498e-06 -2.685859629917928e-09 2.364001447964917e-09)
(2.5018602789638212e-05 1.0666194846380249e-07 -5.495309236006287e-08 5.997582634836574e-06 -2.691950501140458e-09 2.398133948663662e-09)
(2.5323123340750134e-05 7.268176645938215e-08 -5.583369700950091e-08 6.052881793903189e-06 -2.682909535890253e-09 2.4323246330480376e-09)
(2.5634199366953192e-05 3.968715677962152e-08 -5.678044042370741e-08 6.107231226629046e-06 -2.661403029828415e-09 2.467066311677811e-09)
(2.595018783140572e-05 8.315172705378994e-09 -5.778927276197689e-08 6.160856938351761e-06 -2.639492325560027e-09 2.5019079951963888e-09)
(2.6269208635831995e-05 -2.0737986723465503e-08 -5.885345490512619e-08 6.214014428487354e-06 -2.63035190911318e-09 2.5363073274845212e-09)
(2.6589533300015188e-05 -4.687028446187626e-08 -5.996374852739775e-08 6.266903205218627e-06 -2.6426293759042455e-09 2.5698639711360488e-09)
(2.6910193226094943e-05 -6.988600126080168e-08 -6.110257215409631e-08 6.31949956381932e-06 -2.667250311428983e-09 2.6027484912575975e-09)
(2.7230295552720015e-05 -8.967473761781645e-08 -6.224964953283176e-08 6.3717144409674855e-06 -2.6907441557907253e-09 2.63526190210727e-09)
(2.754886966363271e-05 -1.061420930521712e-07 -6.338472561961322e-08 6.4234768272050755e-06 -2.701002420127969e-09 2.6677031514896766e-09)
(2.7863752793529347e-05 -1.193190241472793e-07 -6.449119784808114e-08 6.47479836754793e-06 -2.7028766915988727e-09 2.7001899598429666e-09)
(2.8172116310671984e-05 -1.2931220561150142e-07 -6.555450758617256e-08 6.525747132416867e-06 -2.7110611237468535e-09 2.732742855482366e-09)
(2.8471054906930167e-05 -1.3624037476921173e-07 -6.655954238870185e-08 6.57639196325054e-06 -2.740483684620527e-09 2.76536679690443e-09)
(2.8759379666296232e-05 -1.4047845771716184e-07 -6.749136887076169e-08 6.626905699509098e-06 -2.795073951516123e-09 2.7977025759033577e-09)
(2.903802578520011e-05 -1.427105583999303e-07 -6.833544703573816e-08 6.677591741477331e-06 -2.8653574080065716e-09 2.828953224049083e-09)
(2.9308026387570878e-05 -1.4366136474959356e-07 -6.907669948753027e-08 6.728759012485801e-06 -2.9407293257367497e-09 2.858265828227449e-09)
(2.9570118479211905e-05 -1.4412660611319585e-07 -6.97133266431323e-08 6.780466166585761e-06 -3.0064422295164017e-09 2.8851893542705088e-09)
(2.9823984462994745e-05 -1.4503452597694448e-07 -7.02746599774352e-08 6.832109674297612e-06 -3.0383872347742054e-09 2.91022592904508e-09)
(3.006929241377472e-05 -1.4736028176864937e-07 -7.079581321613122e-08 6.883000825065691e-06 -3.0104139359420284e-09 2.934047352814155e-09)
(3.0305416779906284e-05 -1.5183860514876234e-07 -7.13084409291788e-08 6.932414873575958e-06 -2.9028868253554183e-09 2.957240627539269e-09)
(3.053094609528999e-05 -1.580222330663562e-07 -7.182573395504676e-08 6.979646176896423e-06 -2.7282613169922285e-09 2.9799838124783163e-09)
(3.0744206727940677e-05 -1.6511495520284436e-07 -7.235591495059225e-08 7.02397670380612e-06 -2.5084793826341535e-09 3.0023419939088608e-09)
(3.094399223695192e-05 -1.7231747288921276e-07 -7.290764509534706e-08 7.064769479630156e-06 -2.2670829517823266e-09 3.024364698724016e-09)
(3.113272253455885e-05 -1.7897803255394834e-07 -7.349014787485927e-08 7.102101207623032e-06 -2.0353849523585794e-09 3.045923782302985e-09)
(3.1314689532267444e-05 -1.8450708182153726e-07 -7.41132656338263e-08 7.136410639302354e-06 -1.8489469629794272e-09 3.066810388602266e-09)
(3.1494092615659086e-05 -1.8828094911502953e-07 -7.47864046623852e-08 7.1681396325478175e-06 -1.740523197417994e-09 3.0867801188921443e-09)
(3.16725863430143e-05 -1.8947932745005742e-07 -7.551137470780506e-08 7.197651105932021e-06 -1.6922645840911501e-09 3.105278218856131e-09)
(3.184993443305976e-05 -1.8713151745931426e-07 -7.628423425932792e-08 7.2252397846766796e-06 -1.6500220049347187e-09 3.1215127861698842e-09)
(3.2025807567112146e-05 -1.8029559910156895e-07 -7.709956959243043e-08 7.251191821444964e-06 -1.559574799429918e-09 3.134722929558661e-09)
(3.2197927135373476e-05 -1.6922170456716362e-07 -7.792417192337509e-08 7.275298092979683e-06 -1.4129774749044687e-09 3.145209563644725e-09)
(3.2362269589185536e-05 -1.552737804256966e-07 -7.869911483314309e-08 7.296898421968374e-06 -1.2455262416687558e-09 3.1542750566591345e-09)
(3.251457100635288e-05 -1.3978172024758807e-07 -7.93630025429775e-08 7.315314610285551e-06 -1.0937877546240839e-09 3.1632465889481916e-09)
(3.2649674740690884e-05 -1.2104660639183102e-07 -7.986442499214835e-08 7.330398637304931e-06 -9.57574943130782e-10 3.172126071401047e-09)
(3.276144605435841e-05 -9.406735619195678e-08 -8.016292812498807e-08 7.342579930664646e-06 -7.965801484413321e-10 3.179467303251331e-09)
(3.28436933361422e-05 -5.385899947694089e-08 -8.022089900695172e-08 7.3523112852056885e-06 -5.689292326336558e-10 3.1837629166536276e-09)
(3.2894821741126086e-05 -4.450785559806657e-09 -8.009505522009532e-08 7.359504866693012e-06 -2.7774500112865486e-10 3.18497589923022e-09)
(3.29184538746908e-05 3.992754711710011e-08 -7.994881766778505e-08 7.363460713531556e-06 2.2870172138768585e-11 3.184735850747076e-09)
(2.728406270322087e-07 -4.0076634974451107e-11 -2.75219348499781e-10 5.2223109823653425e-12 -1.8086277245699404e-11 1.704730352970948e-10)
(1.4941321107441911e-06 -1.4205736549153513e-09 -1.4205736549153507e-09 9.437164505514344e-10 -2.8918218343553794e-10 9.437164505514348e-10)
(2.7269342184791906e-06 -5.870833013151176e-09 -2.3026582988414064e-09 5.976754934559448e-09 -1.7205642197009797e-09 2.207179229553619e-09)
(3.766724060021116e-06 -1.2865063833311506e-08 -3.081621258287176e-09 1.9742364575087305e-08 -5.19834852038612e-09 3.858938259387426e-09)
(4.6720374727262425e-06 -2.0653832670792943e-08 -4.027865112710905e-09 4.9003468453465596e-08 -1.1331000078653465e-08 5.744660595300831e-09)
(5.538895585304083e-06 -2.8322629704721343e-08 -5.270144730817232e-09 1.0065297231110378e-07 -2.0326310986732224e-08 7.750507855480155e-09)
(6.449403590865562e-06 -3.60010774294684e-08 -6.828788495297078e-09 1.821252419162208e-07 -3.216300978689404e-08 9.783011422697399e-09)
(7.467892430986593e-06 -4.487638089832837e-08 -8.825985258798509e-09 3.004622104528198e-07 -4.661366260421388e-08 1.1779942093546994e-08)
(8.642958789750776e-06 -5.692569902218317e-08 -1.159677871771345e-08 4.616048366064543e-07 -6.32576570459523e-08 1.371348588930436e-08)
(1.0012289953006566e-05 -7.380484502058557e-08 -1.5770820533181093e-08 6.70285475306152e-07 -8.161981906769072e-08 1.5573487969895413e-08)
(1.160807970198282e-05 -9.651676940452459e-08 -2.2169810394198723e-08 9.300924676790759e-07 -1.0118919315665584e-07 1.7363276128398485e-08)
(1.345790555487358e-05 -1.2466916217785947e-07 -3.18320849861906e-08 1.2427545730397922e-06 -1.2142493811025362e-07 1.9107409009968544e-08)
(1.5584922062054187e-05 -1.564086105602582e-07 -4.5791844038613903e-08 1.6087779488552477e-06 -1.4182077267966824e-07 2.0830864403173802e-08)
(1.8006304808749835e-05 -1.875522134374645e-07 -6.499023478622391e-08 2.0271373619490627e-06 -1.6197874579594442e-07 2.255425474631236e-08)
(2.0735531427506497e-05 -2.126476107116848e-07 -9.018587157834336e-08 2.496324077247709e-06 -1.8156768352439523e-07 2.4295771446197013e-08)
(2.3776103245764098e-05 -2.2421381348246344e-07 -1.217301474959808e-07 3.0136535351372496e-06 -2.003526740336575e-07 2.6066625234422086e-08)
(2.7125965281548505e-05 -2.14234631668074e-07 -1.5974186379629282e-07 3.5760845091347273e-06 -2.1813982891119557e-07 2.787216560957002e-08)
(3.077124568216724e-05 -1.7421828214322522e-07 -2.037394322313438e-07 4.180548263915133e-06 -2.3486133780838565e-07 2.9701468175440587e-08)
(3.4693223788069864e-05 -9.559150545661966e-08 -2.53041713515021e-07 4.823802566856567e-06 -2.504752871387392e-07 3.1538783648618916e-08)
(3.886302300084868e-05 2.839659842578576e-08 -3.065356286107726e-07 5.502938438703734e-06 -2.649786830757572e-07 3.336287474198018e-08)
(4.324656737627746e-05 2.0363217476096686e-07 -3.6287004490872963e-07 6.215290006603636e-06 -2.7839101329707416e-07 3.514950413572622e-08)
(4.7805295733990215e-05 4.340360724261235e-07 -4.206442967924731e-07 6.9580907547327475e-06 -2.907009641728444e-07 3.687038152584667e-08)
(5.249860941420665e-05 7.203987448605264e-07 -4.784653801844941e-07 7.7292040712582e-06 -3.018589095625665e-07 3.8492871644299537e-08)
(5.7281644031104396e-05 1.0626411340379339e-06 -5.348981367324807e-07 8.525937316239914e-06 -3.1179745068731693e-07 3.998379558422259e-08)
(6.211468080907311e-05 1.4575975103094545e-06 -5.888254398101501e-07 9.345908259087771e-06 -3.204135427814428e-07 4.1326173678659686e-08)
(6.695609222840176e-05 1.9002123346200837e-06 -6.392270230105903e-07 1.0186210734148809e-05 -3.275763898326945e-07 4.250974006686323e-08)
(7.176768072313433e-05 2.384776250502542e-06 -6.852563260182775e-07 1.1043973944939545e-05 -3.331633640590244e-07 4.353094692257601e-08)
(7.651795654773756e-05 2.9035328025972163e-06 -7.265725764487013e-07 1.19155953123781e-05 -3.370740161203562e-07 4.440477783394612e-08)
(8.117844693701976e-05 3.448391459785927e-06 -7.629462435029026e-07 1.2797691985798623e-05 -3.3921291026680564e-07 4.515064928963875e-08)
(8.572236720956475e-05 4.0107836662419885e-06 -7.94268907322705e-07 1.3686185295701076e-05 -3.39531583605093e-07 4.5790328303550946e-08)
(9.013397234098477e-05 4.58248965010828e-06 -8.206819290785354e-07 1.4577510173315487e-05 -3.3805798605400327e-07 4.6350099594520405e-08)
(9.439446728390537e-05 5.154629831309244e-06 -8.423352235149005e-07 1.546729537200311e-05 -3.3482953608811673e-07 4.68567408743853e-08)
(9.849276913897998e-05 5.719354001396672e-06 -8.595639679583819e-07 1.635166126330064e-05 -3.2992171337467226e-07 4.7333147978483456e-08)
(0.00010242561906846286 6.26989349567873e-06 -8.728912158681533e-07 1.722722560463418e-05 -3.2344756399725117e-07 4.779799018467141e-08)
(0.00010618835285573853 6.799146700944573e-06 -8.828573730177653e-07 1.809013557846942e-05 -3.155299876054917e-07 4.8270237325047366e-08)
(0.00010978142150058739 7.30177761460163e-06 -8.8999335559688e-07 1.8937293349733117e-05 -3.0632127838620677e-07 4.8771678611435926e-08)
(0.00011320778349623188 7.773735305876046e-06 -8.948176711705015e-07 1.976578474478705e-05 -2.960055107250932e-07 4.932646227932501e-08)
(0.00011647186684520331 8.211124536876957e-06 -8.97863496101037e-07 2.057292941427091e-05 -2.847722140923348e-07 4.995912946716778e-08)
(0.00011957980642009863 8.611369499372769e-06 -8.995844309561269e-07 2.1356845896197662e-05 -2.728358551757715e-07 5.0682589488659577e-08)
(0.00012254032185332828 8.973269660398896e-06 -9.003605485888229e-07 2.2116640302313052e-05 -2.6043206915029054e-07 5.149889345270573e-08)
(0.00012536168312993572 9.29556125768551e-06 -9.005775002076944e-07 2.2851228064583903e-05 -2.4780664067491043e-07 5.24094409610401e-08)
(0.00012805351489110958 9.577659860332026e-06 -9.005084853278021e-07 2.356035219022007e-05 -2.3514148974161914e-07 5.3414995279341904e-08)
(0.00013062519333994154 9.819589075107333e-06 -9.002900464348372e-07 2.424427883288623e-05 -2.2254886705174684e-07 5.451498479442909e-08)
(0.00013308758328512503 1.0021535055778568e-05 -9.000551157613061e-07 2.490363342752367e-05 -2.1013444255608032e-07 5.5709151505006395e-08)
(0.00013545032597882397 1.0183719193610326e-05 -8.999326353537218e-07 2.5538949389488698e-05 -1.979743601323036e-07 5.699281526338713e-08)
(0.00013772168925297757 1.0306545933021752e-05 -9.000410647488761e-07 2.6150859021357314e-05 -1.8608531204824253e-07 5.835385475642877e-08)
(0.00013991079399360763 1.0390510467570214e-05 -9.005013340859428e-07 2.6740222783801533e-05 -1.744746649929032e-07 5.97793887141077e-08)
(0.00014202633335835702 1.043632828205114e-05 -9.014576163491561e-07 2.7307674308714925e-05 -1.6314699420879733e-07 6.12607219105207e-08)
(0.00014407806374110117 1.0445431393601013e-05 -9.031189955667518e-07 2.7853896269922607e-05 -1.5208149229721206e-07 6.280515428458133e-08)
(0.0001460742615096027 1.0419420331697355e-05 -9.057115934288521e-07 2.8379078199093506e-05 -1.4126231920885138e-07 6.442188121550471e-08)
(0.00014802516300491673 1.0360159949435658e-05 -9.094747737815445e-07 2.8883888893660465e-05 -1.306784380648856e-07 6.612123567875453e-08)
(0.00014993958159969278 1.027092227330401e-05 -9.146806549053172e-07 2.93687299929601e-05 -1.204223945843303e-07 6.790958980619537e-08)
(0.00015182756737829392 1.0155592643734809e-05 -9.216234263072293e-07 2.9834329255449568e-05 -1.1062289774557629e-07 6.979319763938256e-08)
(0.00015369851909259269 1.001821957790714e-05 -9.305824200269765e-07 3.0281287851226474e-05 -1.0141489097722842e-07 7.17765406144667e-08)
(0.0001555587768147044 9.862630446948654e-06 -9.414351093148201e-07 3.0711151013448875e-05 -9.289158668785811e-08 7.384223939781859e-08)
(0.0001574111602840317 9.692508327045643e-06 -9.536854846546867e-07 3.1126161809777796e-05 -8.511177105749468e-08 7.59519839136492e-08)
(0.00015925847608158015 9.51165453076612e-06 -9.668087915579152e-07 3.1528669637734024e-05 -7.81340712505819e-08 7.806556253661007e-08)
(0.000161104033455026 9.323370394613203e-06 -9.805251631908e-07 3.1920626651422735e-05 -7.194439278022858e-08 8.016097241342888e-08)
(0.000162952348274212 9.129703091887926e-06 -9.951045989821688e-07 3.230308031297618e-05 -6.636958739217968e-08 8.225723402055557e-08)
(0.00016480770839996377 8.932651179760125e-06 -1.0108931183718953e-06 3.267688516884005e-05 -6.121184208749685e-08 8.437874090599911e-08)
(0.00016667357926974526 8.734358090483663e-06 -1.0281826025792858e-06 3.304313776084594e-05 -5.6316699593080996e-08 8.654918602282444e-08)
(0.00016854254986436865 8.538043155417157e-06 -1.0468360034500971e-06 3.3403193240332026e-05 -5.1841572051668644e-08 8.877796045516312e-08)
(0.00017040362528278284 8.347327494509337e-06 -1.0665546096419007e-06 3.375868917298504e-05 -4.806534406001665e-08 9.107002052893076e-08)
(0.00017224536380512626 8.16585324936836e-06 -1.0870190270238533e-06 3.4111298767839555e-05 -4.5268601410584804e-08 9.342952436155819e-08)
(0.0001740600073517013 7.994343217277041e-06 -1.1077172696486033e-06 3.446332075654992e-05 -4.3539336394771026e-08 9.58448911657598e-08)
(0.00017584465033460475 7.830331259641689e-06 -1.127944245906805e-06 3.481789506044399e-05 -4.276007482214804e-08 9.828908647802525e-08)
(0.00017759601798552637 7.671167706850328e-06 -1.1469572259470327e-06 3.517820450001437e-05 -4.28002657371152e-08 1.0073280083299198e-07)
(0.00017931230099350618 7.51304352584219e-06 -1.1641521705380893e-06 3.5546704272583036e-05 -4.349197424583096e-08 1.031527673757992e-07)
(0.00018099734389323297 7.348754540164755e-06 -1.179402280170175e-06 3.5923677142847634e-05 -4.4565149087702586e-08 1.0554738763583909e-07)
(0.00018265608553528085 7.170255353670159e-06 -1.1926673481694087e-06 3.630898036062871e-05 -4.5722757249305206e-08 1.0791903363899128e-07)
(0.00018429376328815437 6.969817354799945e-06 -1.2039722556157621e-06 3.6702308099126895e-05 -4.6684592473289466e-08 1.1027094176578624e-07)
(0.00018592170915610482 6.745005189014753e-06 -1.2140590929423754e-06 3.7102823354698715e-05 -4.7442771437913823e-08 1.1262113296364534e-07)
(0.0001875546818693372 6.496637325036926e-06 -1.224114896801683e-06 3.750924616051115e-05 -4.815538010511886e-08 1.1499625848904265e-07)
(0.00018920815481451866 6.2255908782864414e-06 -1.235367152488302e-06 3.792030209245507e-05 -4.898696388485373e-08 1.1742398462335881e-07)
(0.0001908952408430172 5.933790053168861e-06 -1.2485395313886034e-06 3.8335044663994404e-05 -5.001382382694821e-08 1.199094695305481e-07)
(0.00019262563405541107 5.624786110780803e-06 -1.2634501921259665e-06 3.875340765048071e-05 -5.115413547693316e-08 1.2241937116873294e-07)
(0.00019440872032946857 5.302451022123726e-06 -1.2798173127421954e-06 3.917535081000417e-05 -5.230731504467347e-08 1.2491504347691428e-07)
(0.00019625292102323988 4.97030881579115e-06 -1.297353445529623e-06 3.960061859085226e-05 -5.336734102211149e-08 1.2736291464766763e-07)
(0.00019816035176716532 4.629230782248956e-06 -1.3157909103001665e-06 4.0027860830788143e-05 -5.4213631131539746e-08 1.2976427960498677e-07)
(0.0002001298550042373 4.2793506850400196e-06 -1.3348527586301117e-06 4.04550684491955e-05 -5.4717264687138224e-08 1.321315879998776e-07)
(0.00020216126719772872 3.920799008220451e-06 -1.3542791419052603e-06 4.088033293081336e-05 -5.475412794236225e-08 1.3447893623351208e-07)
(0.00020426340494448923 3.5563641124134256e-06 -1.3742809812781138e-06 4.1302032045096054e-05 -5.440290246681912e-08 1.36828589921497e-07)
(0.00020645405831891026 3.191724761602231e-06 -1.3955614752383226e-06 4.171875212166161e-05 -5.3956612698950055e-08 1.3921089159855643e-07)
(0.0002087524892261906 2.8327873305957977e-06 -1.4188735727531086e-06 4.212914952067674e-05 -5.372759987676056e-08 1.4165809150349922e-07)
(0.00021116718742230294 2.4842519188836374e-06 -1.4445136987758246e-06 4.2532626136472794e-05 -5.393447584082129e-08 1.4418030017364606e-07)
(0.00021367268801832836 2.1469026554525233e-06 -1.4713610026259633e-06 4.293081046818412e-05 -5.4495514407672905e-08 1.467189143959254e-07)