/*--------------------------------*- C++ -*----------------------------------*\
| =========                 |                                                 |
| \\      /  F ield         | OpenFOAM: The Open Source CFD Toolbox           |
|  \\    /   O peration     | Version:  2306                                  |
|   \\  /    A nd           | Website:  www.openfoam.com                      |
|    \\/     M anipulation  |                                                 |
\*---------------------------------------------------------------------------*/
// * * * * * * * * * * * * * * * * * * * * * * * * * * * * * * * * * * * * * //
FoamFile
{
    version         2;
    format          ascii;
    class           volSymmTensorField;
    location        "97.86";
    object          Rdns;
}

dimensions      [ 0 2 -2 0 0 0 0 ];

internalField   nonuniform List<symmTensor> 
15625
(
(6.31234e-08 -1.04284e-11 -1.04284e-11 -1.49458e-12 -1.47814e-11 -1.49458e-12)
(2.72841e-07 -2.75219e-10 -4.00766e-11 1.70473e-10 -1.80863e-11 5.22231e-12)
(4.45427e-07 -1.04333e-09 -4.07794e-11 9.15513e-10 -7.41711e-11 2.12101e-11)
(5.74564e-07 -2.16195e-09 -5.64369e-11 2.671e-09 -1.96781e-10 4.50099e-11)
(6.78464e-07 -3.31013e-09 -8.59329e-11 6.51489e-09 -4.44581e-10 7.08839e-11)
(7.73812e-07 -4.32524e-09 -1.38233e-10 1.32578e-08 -8.11076e-10 9.83429e-11)
(8.72568e-07 -5.2084e-09 -2.05735e-10 2.39275e-08 -1.3002e-09 1.2686e-10)
(9.83151e-07 -6.12338e-09 -2.84352e-10 3.95217e-08 -1.9088e-09 1.5489e-10)
(1.11141e-06 -7.35839e-09 -3.87504e-10 6.07949e-08 -2.61102e-09 1.8208e-10)
(1.26158e-06 -9.16348e-09 -5.37416e-10 8.84073e-08 -3.38792e-09 2.08436e-10)
(1.43713e-06 -1.1711e-08 -7.6395e-10 1.22877e-07 -4.22061e-09 2.3409e-10)
(1.64101e-06 -1.50076e-08 -1.10902e-09 1.64428e-07 -5.08319e-09 2.59249e-10)
(1.87564e-06 -1.88751e-08 -1.61476e-09 2.13124e-07 -5.95185e-09 2.84189e-10)
(2.14282e-06 -2.28362e-08 -2.31928e-09 2.68837e-07 -6.81042e-09 3.09317e-10)
(2.44396e-06 -2.62495e-08 -3.25348e-09 3.31372e-07 -7.64531e-09 3.34948e-10)
(2.77941e-06 -2.821e-08 -4.43243e-09 4.00363e-07 -8.4458e-09 3.61134e-10)
(3.14892e-06 -2.77392e-08 -5.86207e-09 4.75391e-07 -9.20281e-09 3.87851e-10)
(3.55095e-06 -2.37799e-08 -7.52473e-09 5.56033e-07 -9.91297e-09 4.14946e-10)
(3.98346e-06 -1.52588e-08 -9.39474e-09 6.41837e-07 -1.05741e-08 4.42219e-10)
(4.44326e-06 -1.31939e-09 -1.14279e-08 7.3239e-07 -1.11863e-08 4.69395e-10)
(4.92664e-06 1.87932e-08 -1.35696e-08 8.27306e-07 -1.1751e-08 4.96155e-10)
(5.42933e-06 4.55879e-08 -1.5764e-08 9.26194e-07 -1.22683e-08 5.22106e-10)
(5.9469e-06 7.91798e-08 -1.79555e-08 1.02876e-06 -1.27373e-08 5.46771e-10)
(6.4744e-06 1.19576e-07 -2.00871e-08 1.13463e-06 -1.3156e-08 5.69656e-10)
(7.00746e-06 1.66383e-07 -2.21135e-08 1.2435e-06 -1.35199e-08 5.9047e-10)
(7.54149e-06 2.18969e-07 -2.39928e-08 1.35497e-06 -1.38232e-08 6.08997e-10)
(8.07229e-06 2.76619e-07 -2.56909e-08 1.46865e-06 -1.406e-08 6.25141e-10)
(8.59638e-06 3.38365e-07 -2.71965e-08 1.58405e-06 -1.42253e-08 6.39147e-10)
(9.11063e-06 4.03197e-07 -2.85031e-08 1.7007e-06 -1.43141e-08 6.51335e-10)
(9.61208e-06 4.70057e-07 -2.96085e-08 1.81803e-06 -1.43239e-08 6.62047e-10)
(1.0099e-05 5.37942e-07 -3.05184e-08 1.93555e-06 -1.42564e-08 6.71673e-10)
(1.05693e-05 6.05771e-07 -3.12392e-08 2.05265e-06 -1.41136e-08 6.80605e-10)
(1.10217e-05 6.72594e-07 -3.17853e-08 2.1688e-06 -1.38993e-08 6.89173e-10)
(1.1456e-05 7.37599e-07 -3.21792e-08 2.28357e-06 -1.36189e-08 6.97636e-10)
(1.18715e-05 7.99933e-07 -3.24444e-08 2.39644e-06 -1.32782e-08 7.06255e-10)
(1.22683e-05 8.58969e-07 -3.26027e-08 2.50701e-06 -1.28842e-08 7.1534e-10)
(1.26468e-05 9.14243e-07 -3.26743e-08 2.61492e-06 -1.24453e-08 7.25241e-10)
(1.30074e-05 9.65311e-07 -3.268e-08 2.71984e-06 -1.197e-08 7.36309e-10)
(1.33508e-05 1.01189e-06 -3.26377e-08 2.82157e-06 -1.14678e-08 7.48714e-10)
(1.3678e-05 1.05386e-06 -3.25628e-08 2.92002e-06 -1.09493e-08 7.62446e-10)
(1.39898e-05 1.09111e-06 -3.2471e-08 3.01511e-06 -1.04253e-08 7.77486e-10)
(1.42874e-05 1.12357e-06 -3.23726e-08 3.10686e-06 -9.90372e-09 7.93846e-10)
(1.45718e-05 1.15127e-06 -3.22713e-08 3.19536e-06 -9.38866e-09 8.11562e-10)
(1.48442e-05 1.17423e-06 -3.21709e-08 3.28074e-06 -8.88404e-09 8.30676e-10)
(1.51057e-05 1.1925e-06 -3.20756e-08 3.36312e-06 -8.39245e-09 8.51136e-10)
(1.53571e-05 1.2061e-06 -3.19902e-08 3.4426e-06 -7.91391e-09 8.72717e-10)
(1.55996e-05 1.21509e-06 -3.192e-08 3.51934e-06 -7.44799e-09 8.95178e-10)
(1.5834e-05 1.21955e-06 -3.1871e-08 3.59344e-06 -6.99415e-09 9.18363e-10)
(1.60616e-05 1.21965e-06 -3.18514e-08 3.66497e-06 -6.55083e-09 9.42439e-10)
(1.62831e-05 1.21558e-06 -3.18699e-08 3.73396e-06 -6.11662e-09 9.67615e-10)
(1.64998e-05 1.20756e-06 -3.19361e-08 3.80047e-06 -5.69059e-09 9.94114e-10)
(1.67125e-05 1.19602e-06 -3.20616e-08 3.86457e-06 -5.27784e-09 1.02202e-09)
(1.69225e-05 1.18148e-06 -3.22593e-08 3.92637e-06 -4.88575e-09 1.0514e-09)
(1.71308e-05 1.16446e-06 -3.25415e-08 3.98594e-06 -4.52188e-09 1.08227e-09)
(1.7338e-05 1.14543e-06 -3.29021e-08 4.04353e-06 -4.18995e-09 1.11433e-09)
(1.75445e-05 1.12484e-06 -3.3318e-08 4.09948e-06 -3.89028e-09 1.14696e-09)
(1.77506e-05 1.10311e-06 -3.37648e-08 4.15414e-06 -3.62306e-09 1.1795e-09)
(1.79566e-05 1.08064e-06 -3.423e-08 4.20778e-06 -3.38589e-09 1.21161e-09)
(1.8163e-05 1.05765e-06 -3.47277e-08 4.26046e-06 -3.17089e-09 1.24371e-09)
(1.83703e-05 1.03436e-06 -3.52756e-08 4.31222e-06 -2.96926e-09 1.27631e-09)
(1.85788e-05 1.01102e-06 -3.58888e-08 4.36313e-06 -2.77434e-09 1.30987e-09)
(1.87878e-05 9.88066e-07 -3.65607e-08 4.41336e-06 -2.59445e-09 1.34446e-09)
(1.89961e-05 9.66002e-07 -3.72764e-08 4.46317e-06 -2.4438e-09 1.38001e-09)
(1.92022e-05 9.45335e-07 -3.80204e-08 4.51282e-06 -2.33666e-09 1.41641e-09)
(1.94055e-05 9.26159e-07 -3.87704e-08 4.56261e-06 -2.27672e-09 1.45351e-09)
(1.96055e-05 9.08118e-07 -3.94978e-08 4.61294e-06 -2.25639e-09 1.49107e-09)
(1.98018e-05 8.90827e-07 -4.01722e-08 4.66418e-06 -2.26733e-09 1.52884e-09)
(1.99942e-05 8.73756e-07 -4.07691e-08 4.71664e-06 -2.30031e-09 1.56657e-09)
(2.01832e-05 8.5594e-07 -4.12826e-08 4.77034e-06 -2.34409e-09 1.60411e-09)
(2.03692e-05 8.3631e-07 -4.17107e-08 4.82523e-06 -2.3867e-09 1.64131e-09)
(2.05529e-05 8.13836e-07 -4.2054e-08 4.88125e-06 -2.4171e-09 1.67806e-09)
(2.07356e-05 7.88212e-07 -4.23451e-08 4.93829e-06 -2.43733e-09 1.71464e-09)
(2.09189e-05 7.5957e-07 -4.26366e-08 4.99617e-06 -2.45753e-09 1.75164e-09)
(2.11045e-05 7.28054e-07 -4.29828e-08 5.0547e-06 -2.48815e-09 1.78962e-09)
(2.12941e-05 6.93945e-07 -4.34152e-08 5.11378e-06 -2.53339e-09 1.82874e-09)
(2.14886e-05 6.57738e-07 -4.39242e-08 5.17345e-06 -2.58621e-09 1.86838e-09)
(2.1689e-05 6.19969e-07 -4.44958e-08 5.23374e-06 -2.63819e-09 1.90781e-09)
(2.18962e-05 5.81125e-07 -4.51157e-08 5.29466e-06 -2.68112e-09 1.94641e-09)
(2.21104e-05 5.41306e-07 -4.57713e-08 5.35597e-06 -2.70921e-09 1.98417e-09)
(2.23316e-05 5.00499e-07 -4.64498e-08 5.41734e-06 -2.71739e-09 2.02127e-09)
(2.25597e-05 4.58689e-07 -4.71394e-08 5.47843e-06 -2.70088e-09 2.05792e-09)
(2.27957e-05 4.16193e-07 -4.78487e-08 5.53896e-06 -2.66498e-09 2.09457e-09)
(2.30414e-05 3.73688e-07 -4.86083e-08 5.5987e-06 -2.6257e-09 2.13188e-09)
(2.3299e-05 3.31875e-07 -4.94507e-08 5.65741e-06 -2.60003e-09 2.17057e-09)
(2.35693e-05 2.91306e-07 -5.03892e-08 5.71503e-06 -2.59937e-09 2.21089e-09)
(2.38497e-05 2.52034e-07 -5.13762e-08 5.77187e-06 -2.61724e-09 2.25167e-09)
(2.41366e-05 2.14009e-07 -5.23515e-08 5.82838e-06 -2.64358e-09 2.29143e-09)
(2.44269e-05 1.77185e-07 -5.32598e-08 5.88495e-06 -2.66845e-09 2.3288e-09)
(2.47204e-05 1.41453e-07 -5.41113e-08 5.94147e-06 -2.68586e-09 2.364e-09)
(2.50186e-05 1.06662e-07 -5.49531e-08 5.99758e-06 -2.69195e-09 2.39813e-09)
(2.53231e-05 7.26818e-08 -5.58337e-08 6.05288e-06 -2.68291e-09 2.43232e-09)
(2.56342e-05 3.96872e-08 -5.67804e-08 6.10723e-06 -2.6614e-09 2.46707e-09)
(2.59502e-05 8.31517e-09 -5.77893e-08 6.16086e-06 -2.63949e-09 2.50191e-09)
(2.62692e-05 -2.0738e-08 -5.88535e-08 6.21401e-06 -2.63035e-09 2.53631e-09)
(2.65895e-05 -4.68703e-08 -5.99637e-08 6.2669e-06 -2.64263e-09 2.56986e-09)
(2.69102e-05 -6.9886e-08 -6.11026e-08 6.3195e-06 -2.66725e-09 2.60275e-09)
(2.72303e-05 -8.96747e-08 -6.22496e-08 6.37171e-06 -2.69074e-09 2.63526e-09)
(2.75489e-05 -1.06142e-07 -6.33847e-08 6.42348e-06 -2.701e-09 2.6677e-09)
(2.78638e-05 -1.19319e-07 -6.44912e-08 6.4748e-06 -2.70288e-09 2.70019e-09)
(2.81721e-05 -1.29312e-07 -6.55545e-08 6.52575e-06 -2.71106e-09 2.73274e-09)
(2.84711e-05 -1.3624e-07 -6.65595e-08 6.57639e-06 -2.74048e-09 2.76537e-09)
(2.87594e-05 -1.40478e-07 -6.74914e-08 6.62691e-06 -2.79507e-09 2.7977e-09)
(2.9038e-05 -1.42711e-07 -6.83354e-08 6.67759e-06 -2.86536e-09 2.82895e-09)
(2.9308e-05 -1.43661e-07 -6.90767e-08 6.72876e-06 -2.94073e-09 2.85827e-09)
(2.95701e-05 -1.44127e-07 -6.97133e-08 6.78047e-06 -3.00644e-09 2.88519e-09)
(2.9824e-05 -1.45035e-07 -7.02747e-08 6.83211e-06 -3.03839e-09 2.91023e-09)
(3.00693e-05 -1.4736e-07 -7.07958e-08 6.883e-06 -3.01041e-09 2.93405e-09)
(3.03054e-05 -1.51839e-07 -7.13084e-08 6.93241e-06 -2.90289e-09 2.95724e-09)
(3.05309e-05 -1.58022e-07 -7.18257e-08 6.97965e-06 -2.72826e-09 2.97998e-09)
(3.07442e-05 -1.65115e-07 -7.23559e-08 7.02398e-06 -2.50848e-09 3.00234e-09)
(3.0944e-05 -1.72317e-07 -7.29076e-08 7.06477e-06 -2.26708e-09 3.02436e-09)
(3.11327e-05 -1.78978e-07 -7.34901e-08 7.1021e-06 -2.03538e-09 3.04592e-09)
(3.13147e-05 -1.84507e-07 -7.41133e-08 7.13641e-06 -1.84895e-09 3.06681e-09)
(3.14941e-05 -1.88281e-07 -7.47864e-08 7.16814e-06 -1.74052e-09 3.08678e-09)
(3.16726e-05 -1.89479e-07 -7.55114e-08 7.19765e-06 -1.69226e-09 3.10528e-09)
(3.18499e-05 -1.87132e-07 -7.62842e-08 7.22524e-06 -1.65002e-09 3.12151e-09)
(3.20258e-05 -1.80296e-07 -7.70996e-08 7.25119e-06 -1.55957e-09 3.13472e-09)
(3.21979e-05 -1.69222e-07 -7.79242e-08 7.2753e-06 -1.41298e-09 3.14521e-09)
(3.23623e-05 -1.55274e-07 -7.86991e-08 7.2969e-06 -1.24553e-09 3.15428e-09)
(3.25146e-05 -1.39782e-07 -7.9363e-08 7.31531e-06 -1.09379e-09 3.16325e-09)
(3.26497e-05 -1.21047e-07 -7.98644e-08 7.3304e-06 -9.57575e-10 3.17213e-09)
(3.27614e-05 -9.40674e-08 -8.01629e-08 7.34258e-06 -7.9658e-10 3.17947e-09)
(3.28437e-05 -5.3859e-08 -8.02209e-08 7.35231e-06 -5.68929e-10 3.18376e-09)
(3.28948e-05 -4.45079e-09 -8.00951e-08 7.3595e-06 -2.77745e-10 3.18498e-09)
(3.29185e-05 3.99275e-08 -7.99488e-08 7.36346e-06 2.28702e-11 3.18474e-09)
(2.72841e-07 -4.00766e-11 -2.75219e-10 5.22231e-12 -1.80863e-11 1.70473e-10)
(1.49413e-06 -1.42057e-09 -1.42057e-09 9.43716e-10 -2.89182e-10 9.43716e-10)
(2.72693e-06 -5.87083e-09 -2.30266e-09 5.97675e-09 -1.72056e-09 2.20718e-09)
(3.76672e-06 -1.28651e-08 -3.08162e-09 1.97424e-08 -5.19835e-09 3.85894e-09)
(4.67204e-06 -2.06538e-08 -4.02787e-09 4.90035e-08 -1.1331e-08 5.74466e-09)
(5.5389e-06 -2.83226e-08 -5.27014e-09 1.00653e-07 -2.03263e-08 7.75051e-09)
(6.4494e-06 -3.60011e-08 -6.82879e-09 1.82125e-07 -3.2163e-08 9.78301e-09)
(7.46789e-06 -4.48764e-08 -8.82599e-09 3.00462e-07 -4.66137e-08 1.17799e-08)
(8.64296e-06 -5.69257e-08 -1.15968e-08 4.61605e-07 -6.32577e-08 1.37135e-08)
(1.00123e-05 -7.38048e-08 -1.57708e-08 6.70285e-07 -8.16198e-08 1.55735e-08)
(1.16081e-05 -9.65168e-08 -2.21698e-08 9.30092e-07 -1.01189e-07 1.73633e-08)
(1.34579e-05 -1.24669e-07 -3.18321e-08 1.24275e-06 -1.21425e-07 1.91074e-08)
(1.55849e-05 -1.56409e-07 -4.57918e-08 1.60878e-06 -1.41821e-07 2.08309e-08)
(1.80063e-05 -1.87552e-07 -6.49902e-08 2.02714e-06 -1.61979e-07 2.25543e-08)
(2.07355e-05 -2.12648e-07 -9.01859e-08 2.49632e-06 -1.81568e-07 2.42958e-08)
(2.37761e-05 -2.24214e-07 -1.2173e-07 3.01365e-06 -2.00353e-07 2.60666e-08)
(2.7126e-05 -2.14235e-07 -1.59742e-07 3.57608e-06 -2.1814e-07 2.78722e-08)
(3.07712e-05 -1.74218e-07 -2.03739e-07 4.18055e-06 -2.34861e-07 2.97015e-08)
(3.46932e-05 -9.55915e-08 -2.53042e-07 4.8238e-06 -2.50475e-07 3.15388e-08)
(3.8863e-05 2.83966e-08 -3.06536e-07 5.50294e-06 -2.64979e-07 3.33629e-08)
(4.32466e-05 2.03632e-07 -3.6287e-07 6.21529e-06 -2.78391e-07 3.51495e-08)
(4.78053e-05 4.34036e-07 -4.20644e-07 6.95809e-06 -2.90701e-07 3.68704e-08)
(5.24986e-05 7.20399e-07 -4.78465e-07 7.7292e-06 -3.01859e-07 3.84929e-08)
(5.72816e-05 1.06264e-06 -5.34898e-07 8.52594e-06 -3.11797e-07 3.99838e-08)
(6.21147e-05 1.4576e-06 -5.88825e-07 9.34591e-06 -3.20414e-07 4.13262e-08)
(6.69561e-05 1.90021e-06 -6.39227e-07 1.01862e-05 -3.27576e-07 4.25097e-08)
(7.17677e-05 2.38478e-06 -6.85256e-07 1.1044e-05 -3.33163e-07 4.35309e-08)
(7.6518e-05 2.90353e-06 -7.26573e-07 1.19156e-05 -3.37074e-07 4.44048e-08)
(8.11784e-05 3.44839e-06 -7.62946e-07 1.27977e-05 -3.39213e-07 4.51506e-08)
(8.57224e-05 4.01078e-06 -7.94269e-07 1.36862e-05 -3.39532e-07 4.57903e-08)
(9.0134e-05 4.58249e-06 -8.20682e-07 1.45775e-05 -3.38058e-07 4.63501e-08)
(9.43945e-05 5.15463e-06 -8.42335e-07 1.54673e-05 -3.3483e-07 4.68567e-08)
(9.84928e-05 5.71935e-06 -8.59564e-07 1.63517e-05 -3.29922e-07 4.73331e-08)
(0.000102426 6.26989e-06 -8.72891e-07 1.72272e-05 -3.23448e-07 4.7798e-08)
(0.000106188 6.79915e-06 -8.82857e-07 1.80901e-05 -3.1553e-07 4.82702e-08)
(0.000109781 7.30178e-06 -8.89993e-07 1.89373e-05 -3.06321e-07 4.87717e-08)
(0.000113208 7.77374e-06 -8.94818e-07 1.97658e-05 -2.96006e-07 4.93265e-08)
(0.000116472 8.21112e-06 -8.97863e-07 2.05729e-05 -2.84772e-07 4.99591e-08)
(0.00011958 8.61137e-06 -8.99584e-07 2.13568e-05 -2.72836e-07 5.06826e-08)
(0.00012254 8.97327e-06 -9.00361e-07 2.21166e-05 -2.60432e-07 5.14989e-08)
(0.000125362 9.29556e-06 -9.00578e-07 2.28512e-05 -2.47807e-07 5.24094e-08)
(0.000128054 9.57766e-06 -9.00508e-07 2.35604e-05 -2.35141e-07 5.3415e-08)
(0.000130625 9.81959e-06 -9.0029e-07 2.42443e-05 -2.22549e-07 5.4515e-08)
(0.000133088 1.00215e-05 -9.00055e-07 2.49036e-05 -2.10134e-07 5.57092e-08)
(0.00013545 1.01837e-05 -8.99933e-07 2.55389e-05 -1.97974e-07 5.69928e-08)
(0.000137722 1.03065e-05 -9.00041e-07 2.61509e-05 -1.86085e-07 5.83539e-08)
(0.000139911 1.03905e-05 -9.00501e-07 2.67402e-05 -1.74475e-07 5.97794e-08)
(0.000142026 1.04363e-05 -9.01458e-07 2.73077e-05 -1.63147e-07 6.12607e-08)
(0.000144078 1.04454e-05 -9.03119e-07 2.78539e-05 -1.52081e-07 6.28052e-08)
(0.000146074 1.04194e-05 -9.05712e-07 2.83791e-05 -1.41262e-07 6.44219e-08)
(0.000148025 1.03602e-05 -9.09475e-07 2.88839e-05 -1.30678e-07 6.61212e-08)
(0.00014994 1.02709e-05 -9.14681e-07 2.93687e-05 -1.20422e-07 6.79096e-08)
(0.000151828 1.01556e-05 -9.21623e-07 2.98343e-05 -1.10623e-07 6.97932e-08)
(0.000153699 1.00182e-05 -9.30582e-07 3.02813e-05 -1.01415e-07 7.17765e-08)
(0.000155559 9.86263e-06 -9.41435e-07 3.07112e-05 -9.28916e-08 7.38422e-08)
(0.000157411 9.69251e-06 -9.53685e-07 3.11262e-05 -8.51118e-08 7.5952e-08)
(0.000159258 9.51165e-06 -9.66809e-07 3.15287e-05 -7.81341e-08 7.80656e-08)
(0.000161104 9.32337e-06 -9.80525e-07 3.19206e-05 -7.19444e-08 8.0161e-08)
(0.000162952 9.1297e-06 -9.95105e-07 3.23031e-05 -6.63696e-08 8.22572e-08)
(0.000164808 8.93265e-06 -1.01089e-06 3.26769e-05 -6.12118e-08 8.43787e-08)
(0.000166674 8.73436e-06 -1.02818e-06 3.30431e-05 -5.63167e-08 8.65492e-08)
(0.000168543 8.53804e-06 -1.04684e-06 3.34032e-05 -5.18416e-08 8.8778e-08)
(0.000170404 8.34733e-06 -1.06655e-06 3.37587e-05 -4.80653e-08 9.107e-08)
(0.000172245 8.16585e-06 -1.08702e-06 3.41113e-05 -4.52686e-08 9.34295e-08)
(0.00017406 7.99434e-06 -1.10772e-06 3.44633e-05 -4.35393e-08 9.58449e-08)
(0.000175845 7.83033e-06 -1.12794e-06 3.48179e-05 -4.27601e-08 9.82891e-08)
(0.000177596 7.67117e-06 -1.14696e-06 3.51782e-05 -4.28003e-08 1.00733e-07)
(0.000179312 7.51304e-06 -1.16415e-06 3.55467e-05 -4.3492e-08 1.03153e-07)
(0.000180997 7.34875e-06 -1.1794e-06 3.59237e-05 -4.45651e-08 1.05547e-07)
(0.000182656 7.17026e-06 -1.19267e-06 3.6309e-05 -4.57228e-08 1.07919e-07)
(0.000184294 6.96982e-06 -1.20397e-06 3.67023e-05 -4.66846e-08 1.10271e-07)
(0.000185922 6.74501e-06 -1.21406e-06 3.71028e-05 -4.74428e-08 1.12621e-07)
(0.000187555 6.49664e-06 -1.22411e-06 3.75092e-05 -4.81554e-08 1.14996e-07)
(0.000189208 6.22559e-06 -1.23537e-06 3.79203e-05 -4.8987e-08 1.17424e-07)
(0.000190895 5.93379e-06 -1.24854e-06 3.8335e-05 -5.00138e-08 1.19909e-07)
(0.000192626 5.62479e-06 -1.26345e-06 3.87534e-05 -5.11541e-08 1.22419e-07)
(0.000194409 5.30245e-06 -1.27982e-06 3.91754e-05 -5.23073e-08 1.24915e-07)
(0.000196253 4.97031e-06 -1.29735e-06 3.96006e-05 -5.33673e-08 1.27363e-07)
(0.00019816 4.62923e-06 -1.31579e-06 4.00279e-05 -5.42136e-08 1.29764e-07)
(0.00020013 4.27935e-06 -1.33485e-06 4.04551e-05 -5.47173e-08 1.32132e-07)
(0.000202161 3.9208e-06 -1.35428e-06 4.08803e-05 -5.47541e-08 1.34479e-07)
(0.000204263 3.55636e-06 -1.37428e-06 4.1302e-05 -5.44029e-08 1.36829e-07)
(0.000206454 3.19172e-06 -1.39556e-06 4.17188e-05 -5.39566e-08 1.39211e-07)
(0.000208752 2.83279e-06 -1.41887e-06 4.21291e-05 -5.37276e-08 1.41658e-07)
(0.000211167 2.48425e-06 -1.44451e-06 4.25326e-05 -5.39345e-08 1.4418e-07)
(0.000213673 2.1469e-06 -1.47136e-06 4.29308e-05 -5.44955e-08 1.46719e-07)
(0.000216237 1.82067e-06 -1.498e-06 4.3326e-05 -5.52698e-08 1.49202e-07)
(0.00021883 1.50558e-06 -1.52314e-06 4.372e-05 -5.61155e-08 1.51561e-07)
(0.000221451 1.2011e-06 -1.54698e-06 4.41129e-05 -5.69241e-08 1.53804e-07)
(0.000224114 9.06424e-07 -1.5706e-06 4.45036e-05 -5.76048e-08 1.55981e-07)
(0.000226836 6.20881e-07 -1.59511e-06 4.48908e-05 -5.80656e-08 1.58144e-07)
(0.000229618 3.45749e-07 -1.62111e-06 4.52739e-05 -5.83152e-08 1.60317e-07)
(0.000232445 8.52729e-08 -1.6485e-06 4.56535e-05 -5.85077e-08 1.6249e-07)
(0.000235298 -1.55912e-07 -1.67709e-06 4.60302e-05 -5.88136e-08 1.64648e-07)
(0.000238161 -3.73698e-07 -1.70665e-06 4.64044e-05 -5.93509e-08 1.6678e-07)
(0.000241025 -5.66319e-07 -1.7368e-06 4.67765e-05 -6.00314e-08 1.68887e-07)
(0.000243884 -7.32471e-07 -1.76707e-06 4.71465e-05 -6.07159e-08 1.70974e-07)
(0.000246731 -8.71063e-07 -1.79702e-06 4.75147e-05 -6.12815e-08 1.73046e-07)
(0.000249547 -9.82892e-07 -1.82626e-06 4.78812e-05 -6.18016e-08 1.75108e-07)
(0.000252307 -1.06989e-06 -1.85443e-06 4.82464e-05 -6.24636e-08 1.77166e-07)
(0.000254983 -1.13407e-06 -1.88116e-06 4.86104e-05 -6.34571e-08 1.79226e-07)
(0.000257565 -1.17841e-06 -1.9061e-06 4.89741e-05 -6.48176e-08 1.81266e-07)
(0.000260061 -1.20697e-06 -1.92896e-06 4.93392e-05 -6.63922e-08 1.83235e-07)
(0.00026248 -1.22404e-06 -1.94943e-06 4.97073e-05 -6.80117e-08 1.85079e-07)
(0.00026483 -1.23486e-06 -1.96747e-06 5.00784e-05 -6.93995e-08 1.86768e-07)
(0.000267106 -1.24671e-06 -1.98374e-06 5.04486e-05 -7.00336e-08 1.88331e-07)
(0.000269305 -1.2674e-06 -1.999e-06 5.08134e-05 -6.9341e-08 1.89809e-07)
(0.000271421 -1.30279e-06 -2.01394e-06 5.11682e-05 -6.69025e-08 1.91239e-07)
(0.000273441 -1.34922e-06 -2.02881e-06 5.15081e-05 -6.30492e-08 1.9264e-07)
(0.000275351 -1.40018e-06 -2.04377e-06 5.18284e-05 -5.83354e-08 1.94024e-07)
(0.000277142 -1.44936e-06 -2.05899e-06 5.21248e-05 -5.33261e-08 1.95403e-07)
(0.000278833 -1.493e-06 -2.07468e-06 5.23975e-05 -4.85502e-08 1.96763e-07)
(0.000280464 -1.5286e-06 -2.09112e-06 5.26491e-05 -4.45273e-08 1.98076e-07)
(0.000282069 -1.55328e-06 -2.10857e-06 5.28821e-05 -4.17325e-08 1.99316e-07)
(0.000283666 -1.5605e-06 -2.12712e-06 5.30979e-05 -3.98596e-08 2.00451e-07)
(0.000285253 -1.54101e-06 -2.14676e-06 5.32973e-05 -3.80425e-08 2.01447e-07)
(0.000286828 -1.48581e-06 -2.16743e-06 5.34807e-05 -3.54159e-08 2.0227e-07)
(0.000288372 -1.39685e-06 -2.18832e-06 5.36474e-05 -3.18994e-08 2.02937e-07)
(0.000289847 -1.28629e-06 -2.20793e-06 5.37954e-05 -2.81451e-08 2.03513e-07)
(0.000291216 -1.16598e-06 -2.2247e-06 5.39224e-05 -2.48231e-08 2.04062e-07)
(0.000292431 -1.01953e-06 -2.23748e-06 5.40284e-05 -2.18482e-08 2.0458e-07)
(0.00029344 -7.99779e-07 -2.24555e-06 5.41152e-05 -1.83112e-08 2.04988e-07)
(0.000294188 -4.59602e-07 -2.24826e-06 5.41847e-05 -1.32699e-08 2.05204e-07)
(0.000294658 -3.34737e-08 -2.24679e-06 5.42359e-05 -6.76547e-09 2.05235e-07)
(0.000294879 3.51796e-07 -2.2444e-06 5.42638e-05 4.76435e-11 2.05193e-07)
(4.45427e-07 -4.07794e-11 -1.04333e-09 2.12101e-11 -7.41711e-11 9.15513e-10)
(2.72693e-06 -2.30266e-09 -5.87083e-09 2.20718e-09 -1.72056e-09 5.97675e-09)
(5.38903e-06 -1.06525e-08 -1.06525e-08 1.44321e-08 -8.62073e-09 1.44321e-08)
(7.89838e-06 -2.48152e-08 -1.49854e-08 4.84264e-08 -2.4146e-08 2.54548e-08)
(1.02657e-05 -4.18915e-08 -1.95514e-08 1.19602e-07 -5.03523e-08 3.81393e-08)
(1.26454e-05 -6.02536e-08 -2.48742e-08 2.44239e-07 -8.80394e-08 5.16478e-08)
(1.5201e-05 -8.04737e-08 -3.1406e-08 4.39257e-07 -1.36977e-07 6.53438e-08)
(1.80767e-05 -1.0526e-07 -4.00981e-08 7.20576e-07 -1.96183e-07 7.88065e-08)
(2.13915e-05 -1.38772e-07 -5.27097e-08 1.10184e-06 -2.64065e-07 9.17927e-08)
(2.52444e-05 -1.84245e-07 -7.22058e-08 1.59363e-06 -3.38709e-07 1.04231e-07)
(2.97229e-05 -2.43176e-07 -1.02306e-07 2.20383e-06 -4.18056e-07 1.16151e-07)
(3.49043e-05 -3.13401e-07 -1.47527e-07 2.93628e-06 -5.00049e-07 1.27701e-07)
(4.08537e-05 -3.89193e-07 -2.12304e-07 3.79198e-06 -5.82742e-07 1.39033e-07)
(4.76194e-05 -4.59244e-07 -3.006e-07 4.76843e-06 -6.64543e-07 1.50292e-07)
(5.52395e-05 -5.0927e-07 -4.15572e-07 5.86207e-06 -7.44136e-07 1.61607e-07)
(6.37234e-05 -5.20307e-07 -5.58594e-07 7.06677e-06 -8.20628e-07 1.73056e-07)
(7.30651e-05 -4.72265e-07 -7.30034e-07 8.37566e-06 -8.93287e-07 1.8468e-07)
(8.32254e-05 -3.44435e-07 -9.27684e-07 9.78194e-06 -9.61848e-07 1.96419e-07)
(9.41516e-05 -1.16061e-07 -1.14849e-06 1.12785e-05 -1.02614e-06 2.08176e-07)
(0.000105763 2.28859e-07 -1.38767e-06 1.28588e-05 -1.08609e-06 2.19801e-07)
(0.000117966 7.04056e-07 -1.63946e-06 1.45171e-05 -1.1417e-06 2.31111e-07)
(0.000130652 1.31848e-06 -1.89794e-06 1.62473e-05 -1.19283e-06 2.41913e-07)
(0.00014371 2.07353e-06 -2.1572e-06 1.80444e-05 -1.23923e-06 2.52016e-07)
(0.000157015 2.96847e-06 -2.4112e-06 1.99024e-05 -1.28054e-06 2.61226e-07)
(0.000170458 3.99534e-06 -2.65524e-06 2.18159e-05 -1.31634e-06 2.69449e-07)
(0.000183924 5.14167e-06 -2.88501e-06 2.37782e-05 -1.34614e-06 2.76633e-07)
(0.000197308 6.39344e-06 -3.09691e-06 2.5783e-05 -1.36948e-06 2.82764e-07)
(0.000210523 7.73157e-06 -3.28931e-06 2.78222e-05 -1.38601e-06 2.87941e-07)
(0.00022349 9.13624e-06 -3.461e-06 2.98884e-05 -1.39541e-06 2.92286e-07)
(0.000236136 1.05862e-05 -3.61133e-06 3.19728e-05 -1.3975e-06 2.95936e-07)
(0.000248416 1.20611e-05 -3.74079e-06 3.40674e-05 -1.39237e-06 2.99051e-07)
(0.000260278 1.35385e-05 -3.84989e-06 3.61626e-05 -1.38012e-06 3.01797e-07)
(0.000271693 1.49989e-05 -3.93991e-06 3.82497e-05 -1.36103e-06 3.0432e-07)
(0.00028265 1.64249e-05 -4.01291e-06 4.03209e-05 -1.3355e-06 3.06748e-07)
(0.000293137 1.77988e-05 -4.07105e-06 4.23673e-05 -1.30395e-06 3.09213e-07)
(0.000303153 1.91066e-05 -4.11648e-06 4.43815e-05 -1.26697e-06 3.11858e-07)
(0.000312709 2.03377e-05 -4.1514e-06 4.63566e-05 -1.22526e-06 3.14838e-07)
(0.000321814 2.14817e-05 -4.17807e-06 4.82859e-05 -1.17955e-06 3.18312e-07)
(0.000330486 2.25314e-05 -4.19841e-06 5.01645e-05 -1.13065e-06 3.22368e-07)
(0.000338748 2.34832e-05 -4.21405e-06 5.19893e-05 -1.07947e-06 3.27033e-07)
(0.000346624 2.43333e-05 -4.22665e-06 5.37571e-05 -1.02695e-06 3.32328e-07)
(0.000354139 2.50798e-05 -4.23745e-06 5.54661e-05 -9.73827e-07 3.38261e-07)
(0.00036132 2.57225e-05 -4.24718e-06 5.71162e-05 -9.20605e-07 3.44815e-07)
(0.000368196 2.62617e-05 -4.25656e-06 5.87076e-05 -8.67773e-07 3.51975e-07)
(0.000374793 2.66979e-05 -4.26624e-06 6.02407e-05 -8.15706e-07 3.59706e-07)
(0.000381135 2.70323e-05 -4.2767e-06 6.17164e-05 -7.64554e-07 3.67946e-07)
(0.000387245 2.72666e-05 -4.28844e-06 6.31361e-05 -7.14429e-07 3.76628e-07)
(0.000393147 2.74026e-05 -4.30206e-06 6.45008e-05 -6.65429e-07 3.85703e-07)
(0.000398868 2.74442e-05 -4.31844e-06 6.58121e-05 -6.17529e-07 3.95193e-07)
(0.000404429 2.73952e-05 -4.33855e-06 6.70706e-05 -5.70725e-07 4.05126e-07)
(0.00040986 2.72603e-05 -4.3634e-06 6.82779e-05 -5.25012e-07 4.1554e-07)
(0.000415183 2.70473e-05 -4.39408e-06 6.94349e-05 -4.8069e-07 4.26483e-07)
(0.000420426 2.67651e-05 -4.43173e-06 7.05429e-05 -4.38153e-07 4.38015e-07)
(0.000425614 2.64234e-05 -4.47742e-06 7.16032e-05 -3.97822e-07 4.50185e-07)
(0.000430764 2.60313e-05 -4.5308e-06 7.2619e-05 -3.60083e-07 4.62901e-07)
(0.000435887 2.55983e-05 -4.59012e-06 7.35947e-05 -3.25298e-07 4.75935e-07)
(0.000440992 2.51341e-05 -4.65355e-06 7.45352e-05 -2.93842e-07 4.89045e-07)
(0.000446089 2.46473e-05 -4.72006e-06 7.5445e-05 -2.65785e-07 5.0209e-07)
(0.00045119 2.41438e-05 -4.79046e-06 7.63272e-05 -2.40539e-07 5.15148e-07)
(0.000456303 2.36295e-05 -4.86577e-06 7.71849e-05 -2.17414e-07 5.28323e-07)
(0.000461438 2.31102e-05 -4.94688e-06 7.80215e-05 -1.95859e-07 5.41725e-07)
(0.000466574 2.25931e-05 -5.03328e-06 7.88404e-05 -1.7635e-07 5.55438e-07)
(0.000471684 2.20855e-05 -5.12393e-06 7.96452e-05 -1.59757e-07 5.69542e-07)
(0.000476736 2.15947e-05 -5.21773e-06 8.04397e-05 -1.46957e-07 5.84109e-07)
(0.000481712 2.11225e-05 -5.31272e-06 8.12292e-05 -1.38291e-07 5.99069e-07)
(0.000486605 2.06641e-05 -5.40609e-06 8.20211e-05 -1.3352e-07 6.14205e-07)
(0.000491404 2.02147e-05 -5.4949e-06 8.28228e-05 -1.32372e-07 6.2928e-07)
(0.000496107 1.97662e-05 -5.57672e-06 8.36403e-05 -1.34359e-07 6.44116e-07)
(0.000500726 1.93023e-05 -5.65098e-06 8.44747e-05 -1.38355e-07 6.58732e-07)
(0.000505276 1.88047e-05 -5.71742e-06 8.53262e-05 -1.43085e-07 6.73182e-07)
(0.000509773 1.82555e-05 -5.77607e-06 8.61948e-05 -1.47329e-07 6.87526e-07)
(0.000514246 1.7649e-05 -5.82978e-06 8.70787e-05 -1.50894e-07 7.01867e-07)
(0.000518732 1.69867e-05 -5.88317e-06 8.79749e-05 -1.54208e-07 7.16339e-07)
(0.000523268 1.62703e-05 -5.94102e-06 8.88804e-05 -1.57718e-07 7.31078e-07)
(0.00052789 1.55037e-05 -6.00617e-06 8.97927e-05 -1.6166e-07 7.46107e-07)
(0.000532623 1.46948e-05 -6.07797e-06 9.07111e-05 -1.65895e-07 7.61256e-07)
(0.000537495 1.3852e-05 -6.15538e-06 9.16351e-05 -1.70236e-07 7.76328e-07)
(0.00054253 1.29828e-05 -6.23733e-06 9.25634e-05 -1.74467e-07 7.91152e-07)
(0.000547736 1.20897e-05 -6.32296e-06 9.34939e-05 -1.78214e-07 8.05734e-07)
(0.000553111 1.11734e-05 -6.41136e-06 9.4423e-05 -1.81036e-07 8.20139e-07)
(0.000558657 1.02347e-05 -6.50171e-06 9.53477e-05 -1.82507e-07 8.34439e-07)
(0.000564398 9.28095e-06 -6.59488e-06 9.62651e-05 -1.82821e-07 8.4874e-07)
(0.000570383 8.32633e-06 -6.69352e-06 9.71726e-05 -1.82824e-07 8.63184e-07)
(0.000576664 7.38569e-06 -6.80048e-06 9.80678e-05 -1.83423e-07 8.77919e-07)
(0.000583264 6.47111e-06 -6.91684e-06 9.89494e-05 -1.85279e-07 8.92993e-07)
(0.000590113 5.5857e-06 -7.03824e-06 9.982e-05 -1.88276e-07 9.08126e-07)
(0.000597124 4.73062e-06 -7.15925e-06 0.000100683 -1.92146e-07 9.22978e-07)
(0.000604212 3.90725e-06 -7.27479e-06 0.000101542 -1.96607e-07 9.37225e-07)
(0.000611376 3.11526e-06 -7.3856e-06 0.000102397 -2.01353e-07 9.50878e-07)
(0.000618659 2.3534e-06 -7.49569e-06 0.000103249 -2.0606e-07 9.64138e-07)
(0.000626106 1.6208e-06 -7.60914e-06 0.000104097 -2.10395e-07 9.77206e-07)
(0.000633721 9.20033e-07 -7.72821e-06 0.00010494 -2.1422e-07 9.90214e-07)
(0.000641456 2.59111e-07 -7.85231e-06 0.000105778 -2.17685e-07 1.00318e-06)
(0.000649253 -3.53224e-07 -7.98066e-06 0.00010661 -2.20964e-07 1.01612e-06)
(0.000657064 -9.08878e-07 -8.11227e-06 0.000107437 -2.2422e-07 1.02903e-06)
(0.000664872 -1.40291e-06 -8.2457e-06 0.000108258 -2.27563e-07 1.04188e-06)
(0.000672663 -1.83088e-06 -8.37933e-06 0.000109077 -2.31089e-07 1.05462e-06)
(0.000680425 -2.18906e-06 -8.51151e-06 0.000109893 -2.349e-07 1.06723e-06)
(0.000688108 -2.48073e-06 -8.64074e-06 0.000110709 -2.39088e-07 1.07971e-06)
(0.000695644 -2.71324e-06 -8.76561e-06 0.000111525 -2.43741e-07 1.09212e-06)
(0.000702963 -2.89423e-06 -8.88463e-06 0.00011234 -2.48947e-07 1.1045e-06)
(0.000710035 -3.03074e-06 -8.99652e-06 0.000113156 -2.54637e-07 1.11675e-06)
(0.00071688 -3.12903e-06 -9.1002e-06 0.000113975 -2.60551e-07 1.12857e-06)
(0.000723519 -3.19553e-06 -9.19459e-06 0.000114799 -2.66408e-07 1.13962e-06)
(0.000729966 -3.23999e-06 -9.27958e-06 0.000115626 -2.71435e-07 1.14973e-06)
(0.000736208 -3.27956e-06 -9.35738e-06 0.00011645 -2.73701e-07 1.15907e-06)
(0.000742232 -3.33303e-06 -9.43067e-06 0.000117262 -2.71054e-07 1.16787e-06)
(0.000748019 -3.41459e-06 -9.50182e-06 0.000118052 -2.61944e-07 1.17634e-06)
(0.000753541 -3.51578e-06 -9.57183e-06 0.000118812 -2.47756e-07 1.18463e-06)
(0.000758765 -3.62149e-06 -9.64129e-06 0.000119532 -2.3075e-07 1.19286e-06)
(0.000763668 -3.71733e-06 -9.71089e-06 0.000120202 -2.13149e-07 1.20113e-06)
(0.000768305 -3.79784e-06 -9.78155e-06 0.000120823 -1.96395e-07 1.20931e-06)
(0.000772772 -3.86182e-06 -9.85438e-06 0.000121398 -1.81576e-07 1.21718e-06)
(0.000777161 -3.90697e-06 -9.93046e-06 0.000121929 -1.69668e-07 1.22451e-06)
(0.000781513 -3.91728e-06 -1.00104e-05 0.00012242 -1.59836e-07 1.23113e-06)
(0.000785833 -3.86674e-06 -1.00942e-05 0.000122867 -1.49944e-07 1.23697e-06)
(0.000790123 -3.72991e-06 -1.01822e-05 0.00012327 -1.37868e-07 1.24191e-06)
(0.000794328 -3.51181e-06 -1.02708e-05 0.00012363 -1.23618e-07 1.24605e-06)
(0.000798349 -3.24598e-06 -1.0354e-05 0.000123945 -1.09193e-07 1.24963e-06)
(0.000802079 -2.96489e-06 -1.0425e-05 0.000124217 -9.66247e-08 1.2529e-06)
(0.000805397 -2.62016e-06 -1.04797e-05 0.000124448 -8.53299e-08 1.2558e-06)
(0.00080817 -2.07532e-06 -1.05162e-05 0.000124638 -7.18697e-08 1.25794e-06)
(0.000810261 -1.19373e-06 -1.05333e-05 0.000124791 -5.26915e-08 1.25893e-06)
(0.000811616 -6.6165e-08 -1.05347e-05 0.000124903 -2.78605e-08 1.25887e-06)
(0.000812271 9.59184e-07 -1.05303e-05 0.000124964 -1.5411e-09 1.25848e-06)
(5.74564e-07 -5.64369e-11 -2.16195e-09 4.50099e-11 -1.96781e-10 2.671e-09)
(3.76672e-06 -3.08162e-09 -1.28651e-08 3.85894e-09 -5.19835e-09 1.97424e-08)
(7.89838e-06 -1.49854e-08 -2.48152e-08 2.54548e-08 -2.4146e-08 4.84264e-08)
(1.21719e-05 -3.6387e-08 -3.6387e-08 8.55883e-08 -6.4471e-08 8.55883e-08)
(1.65041e-05 -6.39229e-08 -4.83736e-08 2.09797e-07 -1.30565e-07 1.28224e-07)
(2.10645e-05 -9.5612e-08 -6.18815e-08 4.25001e-07 -2.23979e-07 1.73614e-07)
(2.60786e-05 -1.3267e-07 -7.8439e-08 7.58502e-07 -3.43934e-07 2.19639e-07)
(3.17692e-05 -1.79287e-07 -1.01111e-07 1.23577e-06 -4.88006e-07 2.64858e-07)
(3.8336e-05 -2.41446e-07 -1.35076e-07 1.87866e-06 -6.52431e-07 3.08411e-07)