/*--------------------------------*- C++ -*----------------------------------*\
| =========                 |                                                 |
| \\      /  F ield         | OpenFOAM: The Open Source CFD Toolbox           |
|  \\    /   O peration     | Version:  2306                                  |
|   \\  /    A nd           | Website:  www.openfoam.com                      |
|    \\/     M anipulation  |                                                 |
\*---------------------------------------------------------------------------*/
// * * * * * * * * * * * * * * * * * * * * * * * * * * * * * * * * * * * * * //
FoamFile
{
    version         2;
    format          ascii;
    class           volSymmTensorField;
    location        "97.86";
    object          Rrans;
}

dimensions      [ 0 2 -2 0 0 0 0 ];

internalField   nonuniform List<symmTensor> 
15625
(
(0.000315129 -3.75051e-06 -3.75051e-06 0.000315129 4.06977e-18 0.000315129)
(0.000349243 -3.2918e-06 -1.04625e-05 0.000349243 2.81578e-18 0.000349243)
(0.000417236 -3.3111e-06 -1.80122e-05 0.000417236 1.90821e-18 0.000417236)
(0.000510003 -3.45196e-06 -2.67703e-05 0.000510003 1.5789e-18 0.000510003)
(0.00061825 -3.61208e-06 -3.6649e-05 0.00061825 1.29061e-18 0.00061825)
(0.000734593 -3.74324e-06 -4.73886e-05 0.000734593 1.05664e-18 0.000734593)
(0.00085378 -3.82599e-06 -5.87027e-05 0.00085378 8.86952e-19 0.00085378)
(0.000972313 -3.85742e-06 -7.03338e-05 0.000972313 7.63294e-19 0.000972313)
(0.00108802 -3.84348e-06 -8.20752e-05 0.00108802 6.70759e-19 0.00108802)
(0.00119963 -3.79361e-06 -9.37709e-05 0.00119963 5.99068e-19 0.00119963)
(0.00130653 -3.71768e-06 -0.000105311 0.00130653 5.41319e-19 0.00130653)
(0.00140847 -3.62491e-06 -0.000116621 0.00140847 4.93258e-19 0.00140847)
(0.00150549 -3.5217e-06 -0.000127659 0.00150549 4.52493e-19 0.00150549)
(0.00159777 -3.41303e-06 -0.000138398 0.00159777 4.17288e-19 0.00159777)
(0.00168556 -3.30324e-06 -0.000148829 0.00168556 3.87155e-19 0.00168556)
(0.00176915 -3.19427e-06 -0.000158951 0.00176915 3.60453e-19 0.00176915)
(0.00184883 -3.08741e-06 -0.000168769 0.00184883 3.37222e-19 0.00184883)
(0.0019249 -2.98403e-06 -0.000178292 0.0019249 3.17437e-19 0.0019249)
(0.00199763 -2.8848e-06 -0.00018753 0.00199763 2.98682e-19 0.00199763)
(0.00206727 -2.78952e-06 -0.000196496 0.00206727 2.81167e-19 0.00206727)
(0.00213405 -2.69826e-06 -0.000205201 0.00213405 2.66038e-19 0.00213405)
(0.00219817 -2.61084e-06 -0.000213657 0.00219817 2.52919e-19 0.00219817)
(0.00225982 -2.52751e-06 -0.000221876 0.00225982 2.41674e-19 0.00225982)
(0.00231917 -2.44837e-06 -0.000229867 0.00231917 2.32816e-19 0.00231917)
(0.00237639 -2.37223e-06 -0.000237644 0.00237639 2.24461e-19 0.00237639)
(0.00243159 -2.29956e-06 -0.000245214 0.00243159 2.15388e-19 0.00243159)
(0.00248491 -2.23046e-06 -0.000252586 0.00248491 2.06417e-19 0.00248491)
(0.00253647 -2.16408e-06 -0.000259771 0.00253647 1.98174e-19 0.00253647)
(0.00258636 -2.10042e-06 -0.000266775 0.00258636 1.89407e-19 0.00258636)
(0.00263469 -2.0394e-06 -0.000273607 0.00263469 1.81552e-19 0.00263469)
(0.00268153 -1.98124e-06 -0.000280273 0.00268153 1.75492e-19 0.00268153)
(0.00272697 -1.92552e-06 -0.00028678 0.00272697 1.69068e-19 0.00272697)
(0.00277108 -1.87149e-06 -0.000293134 0.00277108 1.61565e-19 0.00277108)
(0.00281393 -1.81958e-06 -0.000299342 0.00281393 1.55676e-19 0.00281393)
(0.00285557 -1.7699e-06 -0.000305408 0.00285557 1.51027e-19 0.00285557)
(0.00289607 -1.72227e-06 -0.000311339 0.00289607 1.44599e-19 0.00289607)
(0.00293547 -1.67614e-06 -0.000317137 0.00293547 1.39744e-19 0.00293547)
(0.00297384 -1.63161e-06 -0.00032281 0.00297384 1.34854e-19 0.00297384)
(0.00301121 -1.58874e-06 -0.000328359 0.00301121 1.28915e-19 0.00301121)
(0.00304762 -1.54728e-06 -0.000333791 0.00304762 1.24625e-19 0.00304762)
(0.00308312 -1.50729e-06 -0.000339108 0.00308312 1.1965e-19 0.00308312)
(0.00311774 -1.46881e-06 -0.000344314 0.00311774 1.12556e-19 0.00311774)
(0.00315152 -1.43158e-06 -0.000349413 0.00315152 1.05774e-19 0.00315152)
(0.00318448 -1.39503e-06 -0.000354408 0.00318448 9.99514e-20 0.00318448)
(0.00321667 -1.36008e-06 -0.000359302 0.00321667 9.38873e-20 0.00321667)
(0.0032481 -1.32649e-06 -0.000364097 0.0032481 8.44241e-20 0.0032481)
(0.0032788 -1.29335e-06 -0.000368798 0.0032788 7.98766e-20 0.0032788)
(0.00330881 -1.26159e-06 -0.000373406 0.00330881 8.00315e-20 0.00330881)
(0.00333813 -1.23064e-06 -0.000377923 0.00333813 7.79824e-20 0.00333813)
(0.00336681 -1.2005e-06 -0.000382352 0.00336681 7.59095e-20 0.00336681)
(0.00339485 -1.17151e-06 -0.000386697 0.00339485 7.18644e-20 0.00339485)
(0.00342227 -1.14306e-06 -0.000390958 0.00342227 6.80924e-20 0.00342227)
(0.0034491 -1.11547e-06 -0.000395138 0.0034491 6.57842e-20 0.0034491)
(0.00347535 -1.08844e-06 -0.000399237 0.00347535 6.52455e-20 0.00347535)
(0.00350105 -1.0623e-06 -0.000403259 0.00350105 6.4694e-20 0.00350105)
(0.00352619 -1.03704e-06 -0.000407206 0.00352619 6.17016e-20 0.00352619)
(0.00355081 -1.01239e-06 -0.000411078 0.00355081 5.91231e-20 0.00355081)
(0.00357491 -9.88331e-07 -0.000414878 0.00357491 5.70938e-20 0.00357491)
(0.00359851 -9.64584e-07 -0.000418606 0.00359851 5.19194e-20 0.00359851)
(0.00362161 -9.4175e-07 -0.000422265 0.00362161 4.84919e-20 0.00362161)
(0.00364425 -9.1924e-07 -0.000425856 0.00364425 5.15653e-20 0.00364425)
(0.00366641 -8.97055e-07 -0.00042938 0.00366641 5.27498e-20 0.00366641)
(0.00368812 -8.76088e-07 -0.000432837 0.00368812 4.84908e-20 0.00368812)
(0.00370938 -8.55162e-07 -0.000436231 0.00370938 4.32737e-20 0.00370938)
(0.00373021 -8.3457e-07 -0.00043956 0.00373021 3.88174e-20 0.00373021)
(0.00375061 -8.14617e-07 -0.000442828 0.00375061 3.51597e-20 0.00375061)
(0.00377059 -7.95005e-07 -0.000446034 0.00377059 3.34395e-20 0.00377059)
(0.00379017 -7.7574e-07 -0.000449179 0.00379017 3.01025e-20 0.00379017)
(0.00380934 -7.57113e-07 -0.000452265 0.00380934 2.71735e-20 0.00380934)
(0.00382811 -7.38836e-07 -0.000455293 0.00382811 2.68926e-20 0.00382811)
(0.00384651 -7.20621e-07 -0.000458262 0.00384651 2.71988e-20 0.00384651)
(0.00386451 -7.03045e-07 -0.000461174 0.00386451 3.09906e-20 0.00386451)
(0.00388215 -6.85537e-07 -0.00046403 0.00388215 3.40918e-20 0.00388215)
(0.00389941 -6.68382e-07 -0.000466829 0.00389941 3.38982e-20 0.00389941)
(0.00391632 -6.5187e-07 -0.000469574 0.00391632 3.63933e-20 0.00391632)
(0.00393287 -6.35426e-07 -0.000472263 0.00393287 3.9394e-20 0.00393287)
(0.00394905 -6.1934e-07 -0.0004749 0.00394905 4.05166e-20 0.00394905)
(0.0039649 -6.03327e-07 -0.000477483 0.0039649 3.93933e-20 0.0039649)
(0.0039804 -5.8767e-07 -0.000480011 0.0039804 3.91174e-20 0.0039804)
(0.00399555 -5.72371e-07 -0.000482488 0.00399555 4.46205e-20 0.00399555)
(0.00401038 -5.57149e-07 -0.000484913 0.00401038 4.63676e-20 0.00401038)
(0.00402487 -5.42284e-07 -0.000487285 0.00402487 4.40316e-20 0.00402487)
(0.00403903 -5.27498e-07 -0.000489606 0.00403903 4.07185e-20 0.00403903)
(0.00405286 -5.12794e-07 -0.000491876 0.00405286 3.59788e-20 0.00405286)
(0.00406637 -4.9872e-07 -0.000494095 0.00406637 3.27566e-20 0.00406637)
(0.00407955 -4.8473e-07 -0.000496264 0.00407955 2.88896e-20 0.00407955)
(0.00409243 -4.70547e-07 -0.000498382 0.00409243 2.30231e-20 0.00409243)
(0.00410497 -4.56722e-07 -0.000500449 0.00410497 1.85181e-20 0.00410497)
(0.00411721 -4.42982e-07 -0.000502465 0.00411721 1.84559e-20 0.00411721)
(0.00412913 -4.29598e-07 -0.000504433 0.00412913 2.53423e-20 0.00412913)
(0.00414074 -4.16567e-07 -0.00050635 0.00414074 3.48928e-20 0.00414074)
(0.00415204 -4.03355e-07 -0.000508218 0.00415204 4.17601e-20 0.00415204)
(0.00416303 -3.90229e-07 -0.000510035 0.00416303 4.59899e-20 0.00416303)
(0.0041737 -3.77195e-07 -0.000511804 0.0041737 4.82619e-20 0.0041737)
(0.00418407 -3.64511e-07 -0.000513521 0.00418407 5.27215e-20 0.00418407)
(0.00419413 -3.51919e-07 -0.00051519 0.00419413 4.89556e-20 0.00419413)
(0.00420389 -3.39154e-07 -0.000516807 0.00420389 4.03417e-20 0.00420389)
(0.00421333 -3.26742e-07 -0.000518375 0.00421333 3.70471e-20 0.00421333)
(0.00422246 -3.14422e-07 -0.000519892 0.00422246 3.33237e-20 0.00422246)
(0.00423129 -3.02195e-07 -0.00052136 0.00423129 3.01652e-20 0.00423129)
(0.00423981 -2.89805e-07 -0.000522776 0.00423981 3.04929e-20 0.00423981)
(0.00424801 -2.77511e-07 -0.000524143 0.00424801 2.76988e-20 0.00424801)
(0.00425591 -2.65568e-07 -0.000525456 0.00425591 2.20598e-20 0.00425591)
(0.00426349 -2.5372e-07 -0.00052672 0.00426349 2.07974e-20 0.00426349)
(0.00427076 -2.41718e-07 -0.000527932 0.00427076 1.74794e-20 0.00427076)
(0.00427771 -2.29813e-07 -0.00052909 0.00427771 1.12637e-20 0.00427771)
(0.00428435 -2.18009e-07 -0.000530198 0.00428435 9.20454e-21 0.00428435)
(0.00429067 -2.06057e-07 -0.000531253 0.00429067 1.05002e-20 0.00429067)
(0.00429666 -1.94209e-07 -0.000532254 0.00429666 9.36576e-21 0.00429666)
(0.00430233 -1.82463e-07 -0.000533201 0.00430233 7.85374e-21 0.00430233)
(0.00430768 -1.70823e-07 -0.000534095 0.00430768 1.04685e-20 0.00430768)
(0.0043127 -1.59286e-07 -0.000534934 0.0043127 1.0918e-20 0.0043127)
(0.00431739 -1.47615e-07 -0.000535718 0.00431739 3.41705e-22 0.00431739)
(0.00432173 -1.3557e-07 -0.000536446 0.00432173 -2.38557e-21 0.00432173)
(0.00432575 -1.23876e-07 -0.000537117 0.00432575 -4.52274e-22 0.00432575)
(0.00432942 -1.12534e-07 -0.000537732 0.00432942 8.29071e-22 0.00432942)
(0.00433275 -1.00592e-07 -0.000538289 0.00433275 -9.49287e-22 0.00433275)
(0.00433572 -8.87647e-08 -0.000538786 0.00433572 -1.1351e-20 0.00433572)
(0.00433835 -7.72913e-08 -0.000539226 0.00433835 -1.83776e-20 0.00433835)
(0.00434061 -6.54679e-08 -0.000539605 0.00434061 -2.15862e-20 0.00434061)
(0.00434251 -5.35333e-08 -0.000539922 0.00434251 -1.81636e-20 0.00434251)
(0.00434404 -4.19528e-08 -0.00054018 0.00434404 -1.57292e-20 0.00434404)
(0.00434519 -3.00387e-08 -0.000540374 0.00434519 -1.05272e-20 0.00434519)
(0.00434597 -1.77939e-08 -0.000540504 0.00434597 -1.00617e-20 0.00434597)
(0.00434637 -5.90948e-09 -0.00054057 0.00434637 -5.7977e-21 0.00434637)
(0.000349243 -1.04625e-05 -3.2918e-06 0.000349243 2.81616e-18 0.000349243)
(0.000298826 -9.17005e-06 -9.17005e-06 0.000298826 -2.72407e-18 0.000298826)
(0.000304332 -8.83274e-06 -1.53137e-05 0.000304332 -1.43074e-18 0.000304332)
(0.000339791 -8.76366e-06 -2.19978e-05 0.000339791 -2.97335e-19 0.000339791)
(0.000391726 -8.85108e-06 -2.94817e-05 0.000391726 1.08649e-19 0.000391726)
(0.000452223 -8.97868e-06 -3.77597e-05 0.000452223 2.79643e-19 0.000452223)
(0.000516403 -9.06391e-06 -4.66374e-05 0.000516403 3.54996e-19 0.000516403)
(0.000581258 -9.07053e-06 -5.5877e-05 0.000581258 3.79173e-19 0.000581258)
(0.000644985 -8.99469e-06 -6.5269e-05 0.000644985 3.77018e-19 0.000644985)
(0.000706567 -8.84859e-06 -7.46535e-05 0.000706567 3.64102e-19 0.000706567)
(0.000765493 -8.65007e-06 -8.3921e-05 0.000765493 3.46316e-19 0.000765493)
(0.000821573 -8.41649e-06 -9.30006e-05 0.000821573 3.25964e-19 0.000821573)
(0.000874793 -8.16253e-06 -0.00010185 0.000874793 3.06355e-19 0.000874793)
(0.000925267 -7.89911e-06 -0.000110448 0.000925267 2.88197e-19 0.000925267)
(0.000973147 -7.63414e-06 -0.000118787 0.000973147 2.71854e-19 0.000973147)
(0.00101861 -7.37281e-06 -0.000126868 0.00101861 2.56896e-19 0.00101861)
(0.00106185 -7.11802e-06 -0.000134697 0.00106185 2.44771e-19 0.00106185)
(0.00110304 -6.87204e-06 -0.000142281 0.00110304 2.34584e-19 0.00110304)
(0.00114235 -6.6361e-06 -0.000149631 0.00114235 2.22974e-19 0.00114235)
(0.00117993 -6.41003e-06 -0.000156759 0.00117993 2.13549e-19 0.00117993)
(0.00121591 -6.19439e-06 -0.000163676 0.00121591 2.03416e-19 0.00121591)
(0.00125043 -5.98894e-06 -0.000170391 0.00125043 1.93883e-19 0.00125043)
(0.00128359 -5.79268e-06 -0.000176915 0.00128359 1.87384e-19 0.00128359)
(0.00131549 -5.60604e-06 -0.000183258 0.00131549 1.82508e-19 0.00131549)
(0.00134623 -5.42812e-06 -0.000189428 0.00134623 1.77793e-19 0.00134623)
(0.00137588 -5.25804e-06 -0.000195435 0.00137588 1.71807e-19 0.00137588)
(0.00140451 -5.09574e-06 -0.000201285 0.00140451 1.65353e-19 0.00140451)
(0.00143219 -4.94099e-06 -0.000206987 0.00143219 1.58287e-19 0.00143219)
(0.00145898 -4.79295e-06 -0.000212547 0.00145898 1.54157e-19 0.00145898)
(0.00148493 -4.65141e-06 -0.000217971 0.00148493 1.5014e-19 0.00148493)
(0.00151009 -4.51585e-06 -0.000223266 0.00151009 1.45666e-19 0.00151009)
(0.00153451 -4.38561e-06 -0.000228437 0.00153451 1.42782e-19 0.00153451)
(0.00155822 -4.2611e-06 -0.000233488 0.00155822 1.35806e-19 0.00155822)
(0.00158126 -4.14129e-06 -0.000238426 0.00158126 1.29844e-19 0.00158126)
(0.00160367 -4.02621e-06 -0.000243254 0.00160367 1.28794e-19 0.00160367)
(0.00162548 -3.91582e-06 -0.000247976 0.00162548 1.25073e-19 0.00162548)
(0.00164671 -3.8093e-06 -0.000252597 0.00164671 1.20584e-19 0.00164671)
(0.0016674 -3.70706e-06 -0.000257119 0.0016674 1.17664e-19 0.0016674)
(0.00168756 -3.6085e-06 -0.000261549 0.00168756 1.15154e-19 0.00168756)
(0.00170723 -3.51291e-06 -0.000265886 0.00170723 1.11237e-19 0.00170723)
(0.00172641 -3.42126e-06 -0.000270134 0.00172641 1.07027e-19 0.00172641)
(0.00174515 -3.33258e-06 -0.000274299 0.00174515 1.01565e-19 0.00174515)
(0.00176344 -3.24668e-06 -0.00027838 0.00176344 9.65384e-20 0.00176344)
(0.00178131 -3.16421e-06 -0.000282383 0.00178131 9.40147e-20 0.00178131)
(0.00179877 -3.08415e-06 -0.000286308 0.00179877 9.0205e-20 0.00179877)
(0.00181584 -3.00631e-06 -0.000290159 0.00181584 8.40077e-20 0.00181584)
(0.00183253 -2.93101e-06 -0.000293937 0.00183253 8.07437e-20 0.00183253)
(0.00184887 -2.85831e-06 -0.000297642 0.00184887 8.18712e-20 0.00184887)
(0.00186485 -2.78773e-06 -0.000301277 0.00186485 8.09457e-20 0.00186485)
(0.00188049 -2.71902e-06 -0.000304848 0.00188049 7.7729e-20 0.00188049)
(0.0018958 -2.65278e-06 -0.000308354 0.0018958 7.49898e-20 0.0018958)
(0.00191079 -2.58822e-06 -0.000311795 0.00191079 7.46105e-20 0.00191079)
(0.00192548 -2.52511e-06 -0.000315173 0.00192548 7.24613e-20 0.00192548)
(0.00193987 -2.46428e-06 -0.000318488 0.00193987 7.04181e-20 0.00193987)
(0.00195396 -2.40496e-06 -0.000321746 0.00195396 6.97598e-20 0.00195396)
(0.00196777 -2.34689e-06 -0.000324948 0.00196777 6.63179e-20 0.00196777)
(0.00198131 -2.29063e-06 -0.000328091 0.00198131 6.55567e-20 0.00198131)
(0.00199458 -2.23593e-06 -0.00033118 0.00199458 6.46136e-20 0.00199458)
(0.00200759 -2.18254e-06 -0.000334211 0.00200759 6.25536e-20 0.00200759)
(0.00202034 -2.1302e-06 -0.000337193 0.00202034 6.11824e-20 0.00202034)
(0.00203285 -2.0792e-06 -0.000340119 0.00203285 6.28723e-20 0.00203285)
(0.00204511 -2.02981e-06 -0.000342997 0.00204511 6.37081e-20 0.00204511)
(0.00205713 -1.98126e-06 -0.000345821 0.00205713 5.77621e-20 0.00205713)
(0.00206893 -1.93379e-06 -0.000348595 0.00206893 5.44957e-20 0.00206893)
(0.00208049 -1.88771e-06 -0.000351323 0.00208049 5.45381e-20 0.00208049)
(0.00209183 -1.84221e-06 -0.000354 0.00209183 5.01398e-20 0.00209183)
(0.00210295 -1.79784e-06 -0.00035663 0.00210295 4.70206e-20 0.00210295)
(0.00211385 -1.75459e-06 -0.000359215 0.00211385 4.71731e-20 0.00211385)
(0.00212455 -1.71222e-06 -0.000361754 0.00212455 4.45238e-20 0.00212455)
(0.00213504 -1.67045e-06 -0.000364243 0.00213504 4.35362e-20 0.00213504)
(0.00214532 -1.62958e-06 -0.000366691 0.00214532 4.38219e-20 0.00214532)
(0.0021554 -1.58984e-06 -0.000369095 0.0021554 4.62638e-20 0.0021554)
(0.00216529 -1.55048e-06 -0.000371452 0.00216529 4.81108e-20 0.00216529)
(0.00217497 -1.51174e-06 -0.000373767 0.00217497 4.41231e-20 0.00217497)
(0.00218447 -1.4739e-06 -0.000376036 0.00218447 4.35781e-20 0.00218447)
(0.00219377 -1.43695e-06 -0.000378262 0.00219377 4.92605e-20 0.00219377)
(0.00220289 -1.40039e-06 -0.000380449 0.00220289 5.15492e-20 0.00220289)
(0.00221181 -1.36421e-06 -0.000382593 0.00221181 4.91463e-20 0.00221181)
(0.00222056 -1.32894e-06 -0.000384693 0.00222056 4.77629e-20 0.00222056)
(0.00222912 -1.2943e-06 -0.000386752 0.00222912 5.07021e-20 0.00222912)
(0.0022375 -1.26007e-06 -0.000388772 0.0022375 5.31632e-20 0.0022375)
(0.0022457 -1.22623e-06 -0.000390747 0.0022457 5.23996e-20 0.0022457)
(0.00225372 -1.19279e-06 -0.000392681 0.00225372 4.91523e-20 0.00225372)
(0.00226157 -1.16e-06 -0.000394578 0.00226157 4.45189e-20 0.00226157)
(0.00226923 -1.12786e-06 -0.00039643 0.00226923 4.24608e-20 0.00226923)
(0.00227673 -1.09613e-06 -0.000398243 0.00227673 4.10697e-20 0.00227673)
(0.00228405 -1.06455e-06 -0.000400014 0.00228405 3.76776e-20 0.00228405)
(0.00229119 -1.03313e-06 -0.000401747 0.00229119 3.23508e-20 0.00229119)
(0.00229816 -1.00237e-06 -0.000403437 0.00229816 3.04426e-20 0.00229816)
(0.00230496 -9.72271e-07 -0.000405089 0.00230496 3.63061e-20 0.00230496)
(0.00231159 -9.42088e-07 -0.000406697 0.00231159 4.36404e-20 0.00231159)
(0.00231804 -9.12073e-07 -0.000408267 0.00231804 4.47587e-20 0.00231804)
(0.00232432 -8.8296e-07 -0.000409795 0.00232432 4.58469e-20 0.00232432)
(0.00233043 -8.53777e-07 -0.00041128 0.00233043 4.92259e-20 0.00233043)
(0.00233637 -8.24528e-07 -0.00041273 0.00233637 5.11197e-20 0.00233637)
(0.00234213 -7.95939e-07 -0.000414133 0.00234213 4.98118e-20 0.00234213)
(0.00234773 -7.67772e-07 -0.000415497 0.00234773 4.37503e-20 0.00234773)
(0.00235315 -7.39546e-07 -0.000416819 0.00235315 4.1486e-20 0.00235315)
(0.00235839 -7.11506e-07 -0.000418101 0.00235839 3.948e-20 0.00235839)
(0.00236347 -6.83654e-07 -0.000419344 0.00236347 3.73514e-20 0.00236347)
(0.00236837 -6.55992e-07 -0.000420538 0.00236837 4.01479e-20 0.00236837)
(0.00237309 -6.28526e-07 -0.000421694 0.00237309 3.73413e-20 0.00237309)
(0.00237764 -6.01253e-07 -0.000422807 0.00237764 3.49206e-20 0.00237764)
(0.00238201 -5.74181e-07 -0.000423877 0.00238201 3.35363e-20 0.00238201)
(0.0023862 -5.46847e-07 -0.000424905 0.0023862 2.82503e-20 0.0023862)
(0.00239021 -5.19948e-07 -0.000425885 0.00239021 2.73993e-20 0.00239021)
(0.00239404 -4.93489e-07 -0.000426827 0.00239404 2.51409e-20 0.00239404)
(0.00239769 -4.66552e-07 -0.00042772 0.00239769 2.31834e-20 0.00239769)
(0.00240115 -4.39829e-07 -0.000428569 0.00240115 2.43544e-20 0.00240115)
(0.00240443 -4.13327e-07 -0.000429374 0.00240443 2.28819e-20 0.00240443)
(0.00240753 -3.86818e-07 -0.000430135 0.00240753 2.16634e-20 0.00240753)
(0.00241043 -3.60313e-07 -0.000430847 0.00241043 2.1834e-20 0.00241043)
(0.00241314 -3.33812e-07 -0.000431514 0.00241314 1.44545e-20 0.00241314)
(0.00241566 -3.07324e-07 -0.000432135 0.00241566 9.80621e-21 0.00241566)
(0.00241799 -2.80851e-07 -0.000432708 0.00241799 1.27425e-20 0.00241799)
(0.00242011 -2.54401e-07 -0.000433229 0.00242011 1.08608e-20 0.00242011)
(0.00242204 -2.2776e-07 -0.0004337 0.00242204 3.96122e-21 0.00242204)
(0.00242377 -2.01372e-07 -0.000434126 0.00242377 -2.00264e-21 0.00242377)
(0.00242529 -1.74807e-07 -0.000434501 0.00242529 -6.83633e-21 0.00242529)
(0.0024266 -1.48073e-07 -0.000434825 0.0024266 -9.47884e-21 0.0024266)
(0.0024277 -1.21606e-07 -0.000435093 0.0024277 -8.66188e-21 0.0024277)
(0.00242859 -9.4773e-08 -0.000435314 0.00242859 -6.06164e-21 0.00242859)
(0.00242926 -6.75822e-08 -0.000435479 0.00242926 -1.50436e-21 0.00242926)
(0.00242971 -4.06798e-08 -0.000435588 0.00242971 -4.04775e-21 0.00242971)
(0.00242994 -1.36505e-08 -0.000435645 0.00242994 -3.90515e-21 0.00242994)
(0.000417236 -1.80122e-05 -3.3111e-06 0.000417236 1.90873e-18 0.000417236)
(0.000304332 -1.53137e-05 -8.83274e-06 0.000304332 -1.43018e-18 0.000304332)
(0.000272547 -1.52909e-05 -1.52909e-05 0.000272547 -1.46808e-18 0.000272547)
(0.000282517 -1.58532e-05 -2.3035e-05 0.000282517 -9.26304e-19 0.000282517)
(0.000315045 -1.65381e-05 -3.20227e-05 0.000315045 -5.49139e-19 0.000315045)
(0.000359818 -1.72144e-05 -4.2261e-05 0.000359818 -2.83739e-19 0.000359818)
(0.000410811 -1.77748e-05 -5.35812e-05 0.000410811 -1.02004e-19 0.000410811)
(0.000464348 -1.81489e-05 -6.56774e-05 0.000464348 1.30627e-20 0.000464348)
(0.000518194 -1.83183e-05 -7.82279e-05 0.000518194 8.01192e-20 0.000518194)
(0.000571032 -1.83021e-05 -9.09663e-05 0.000571032 1.17334e-19 0.000571032)
(0.000622135 -1.81364e-05 -0.000103695 0.000622135 1.35954e-19 0.000622135)
(0.000671153 -1.78587e-05 -0.000116283 0.000671153 1.4034e-19 0.000671153)
(0.00071796 -1.75022e-05 -0.000128644 0.00071796 1.37812e-19 0.00071796)
(0.000762573 -1.70952e-05 -0.00014073 0.000762573 1.32042e-19 0.000762573)
(0.00080508 -1.66586e-05 -0.000152515 0.00080508 1.2368e-19 0.00080508)
(0.000845593 -1.62064e-05 -0.000163988 0.000845593 1.14328e-19 0.000845593)
(0.000884267 -1.57496e-05 -0.00017515 0.000884267 1.06249e-19 0.000884267)
(0.00092122 -1.52955e-05 -0.000186004 0.00092122 9.96212e-20 0.00092122)
(0.000956593 -1.48492e-05 -0.000196561 0.000956593 9.01261e-20 0.000956593)
(0.000990513 -1.44139e-05 -0.00020683 0.000990513 8.08663e-20 0.000990513)
(0.00102309 -1.39905e-05 -0.000216824 0.00102309 7.28334e-20 0.00102309)
(0.00105441 -1.35809e-05 -0.000226556 0.00105441 6.42981e-20 0.00105441)
(0.0010846 -1.31857e-05 -0.000236032 0.0010846 5.5889e-20 0.0010846)
(0.00111371 -1.28043e-05 -0.000245275 0.00111371 5.00401e-20 0.00111371)
(0.00114183 -1.24369e-05 -0.000254283 0.00114183 4.42624e-20 0.00114183)
(0.00116902 -1.20833e-05 -0.00026307 0.00116902 3.71263e-20 0.00116902)
(0.00119535 -1.17433e-05 -0.000271651 0.00119535 2.92898e-20 0.00119535)
(0.00122087 -1.14157e-05 -0.000280029 0.00122087 1.71842e-20 0.00122087)
(0.00124562 -1.10999e-05 -0.000288217 0.00124562 1.20963e-20 0.00124562)
(0.00126966 -1.07963e-05 -0.000296217 0.00126966 1.2449e-20 0.00126966)
(0.00129302 -1.05039e-05 -0.000304047 0.00129302 1.02425e-20 0.00129302)
(0.00131575 -1.02221e-05 -0.000311706 0.00131575 7.5763e-21 0.00131575)
(0.00133787 -9.95049e-06 -0.000319199 0.00133787 -3.87117e-21 0.00133787)
(0.00135942 -9.68822e-06 -0.000326542 0.00135942 -1.54297e-20 0.00135942)
(0.00138042 -9.43535e-06 -0.000333732 0.00138042 -1.37461e-20 0.00138042)
(0.00140091 -9.19114e-06 -0.000340778 0.00140091 -1.3239e-20 0.00140091)
(0.00142091 -8.95506e-06 -0.000347685 0.00142091 -2.10671e-20 0.00142091)
(0.00144043 -8.72819e-06 -0.000354456 0.00144043 -2.16324e-20 0.00144043)
(0.0014595 -8.50821e-06 -0.000361097 0.0014595 -1.78795e-20 0.0014595)
(0.00147815 -8.29234e-06 -0.000367615 0.00147815 -2.26959e-20 0.00147815)
(0.00149638 -8.0851e-06 -0.000374009 0.00149638 -2.54458e-20 0.00149638)
(0.00151421 -7.88693e-06 -0.000380286 0.00151421 -2.92685e-20 0.00151421)
(0.00153167 -7.69402e-06 -0.000386451 0.00153167 -3.72507e-20 0.00153167)
(0.00154876 -7.50669e-06 -0.0003925 0.00154876 -3.68359e-20 0.00154876)
(0.0015655 -7.32522e-06 -0.000398444 0.0015655 -3.44507e-20 0.0015655)
(0.0015819 -7.14987e-06 -0.000404288 0.0015819 -3.74348e-20 0.0015819)
(0.00159797 -6.97669e-06 -0.000410025 0.00159797 -4.20812e-20 0.00159797)
(0.00161373 -6.80588e-06 -0.000415671 0.00161373 -4.02396e-20 0.00161373)
(0.00162917 -6.64593e-06 -0.000421214 0.00162917 -3.76733e-20 0.00162917)
(0.00164433 -6.49288e-06 -0.000426665 0.00164433 -3.8547e-20 0.00164433)
(0.00165919 -6.33851e-06 -0.00043202 0.00165919 -4.0986e-20 0.00165919)
(0.00167377 -6.18713e-06 -0.000437292 0.00167377 -4.14599e-20 0.00167377)
(0.00168809 -6.03886e-06 -0.000442469 0.00168809 -4.28774e-20 0.00168809)
(0.00170213 -5.89796e-06 -0.000447566 0.00170213 -4.76766e-20 0.00170213)
(0.00171593 -5.76457e-06 -0.000452578 0.00171593 -4.44943e-20 0.00171593)
(0.00172947 -5.63041e-06 -0.00045751 0.00172947 -4.86618e-20 0.00172947)
(0.00174277 -5.49972e-06 -0.000462359 0.00174277 -5.47516e-20 0.00174277)
(0.00175583 -5.36843e-06 -0.00046713 0.00175583 -5.33275e-20 0.00175583)
(0.00176866 -5.24491e-06 -0.000471827 0.00176866 -5.51508e-20 0.00176866)
(0.00178126 -5.12512e-06 -0.000476441 0.00178126 -5.48408e-20 0.00178126)
(0.00179363 -5.00486e-06 -0.000480982 0.00179363 -4.55052e-20 0.00179363)
(0.00180579 -4.88842e-06 -0.000485454 0.00180579 -4.57634e-20 0.00180579)
(0.00181774 -4.77164e-06 -0.00048985 0.00181774 -6.18232e-20 0.00181774)
(0.00182947 -4.66291e-06 -0.000494175 0.00182947 -6.27549e-20 0.00182947)
(0.001841 -4.55394e-06 -0.000498425 0.001841 -5.31002e-20 0.001841)
(0.00185233 -4.44477e-06 -0.000502607 0.00185233 -5.43633e-20 0.00185233)
(0.00186345 -4.34372e-06 -0.000506725 0.00186345 -5.7154e-20 0.00186345)
(0.00187438 -4.24256e-06 -0.000510769 0.00187438 -5.18927e-20 0.00187438)
(0.00188511 -4.13716e-06 -0.000514747 0.00188511 -5.3119e-20 0.00188511)
(0.00189565 -4.03993e-06 -0.000518662 0.00189565 -5.81678e-20 0.00189565)
(0.00190601 -3.9468e-06 -0.000522507 0.00190601 -6.10497e-20 0.00190601)
(0.00191617 -3.84953e-06 -0.000526286 0.00191617 -5.57602e-20 0.00191617)
(0.00192616 -3.75637e-06 -0.000530005 0.00192616 -4.5505e-20 0.00192616)
(0.00193596 -3.66326e-06 -0.000533657 0.00193596 -4.89084e-20 0.00193596)
(0.00194558 -3.57018e-06 -0.000537239 0.00194558 -5.42032e-20 0.00194558)
(0.00195502 -3.48534e-06 -0.000540765 0.00195502 -4.47409e-20 0.00195502)
(0.00196428 -3.4006e-06 -0.000544225 0.00196428 -3.30034e-20 0.00196428)
(0.00197337 -3.31188e-06 -0.000547619 0.00197337 -3.63783e-20 0.00197337)
(0.00198227 -3.22734e-06 -0.000550952 0.00198227 -5.08021e-20 0.00198227)
(0.00199101 -3.14699e-06 -0.000554224 0.00199101 -5.05991e-20 0.00199101)
(0.00199957 -3.06276e-06 -0.000557433 0.00199957 -4.37395e-20 0.00199957)
(0.00200796 -2.97869e-06 -0.000560578 0.00200796 -4.78368e-20 0.00200796)
(0.00201618 -2.90283e-06 -0.000563658 0.00201618 -4.69424e-20 0.00201618)
(0.00202423 -2.82319e-06 -0.000566679 0.00202423 -5.25005e-20 0.00202423)
(0.0020321 -2.74371e-06 -0.00056964 0.0020321 -5.51146e-20 0.0020321)
(0.0020398 -2.66846e-06 -0.000572533 0.0020398 -4.56012e-20 0.0020398)
(0.00204733 -2.59342e-06 -0.000575363 0.00204733 -4.66831e-20 0.00204733)
(0.0020547 -2.51863e-06 -0.000578138 0.0020547 -5.05697e-20 0.0020547)
(0.00206189 -2.44408e-06 -0.000580842 0.00206189 -5.33419e-20 0.00206189)
(0.00206891 -2.36981e-06 -0.000583489 0.00206891 -4.83374e-20 0.00206891)
(0.00207577 -2.2958e-06 -0.00058607 0.00207577 -3.85515e-20 0.00207577)
(0.00208245 -2.22599e-06 -0.000588592 0.00208245 -4.28573e-20 0.00208245)
(0.00208895 -2.15259e-06 -0.000591047 0.00208895 -4.6087e-20 0.00208895)
(0.00209529 -2.08335e-06 -0.000593441 0.00209529 -3.78622e-20 0.00209529)
(0.00210145 -2.01445e-06 -0.000595768 0.00210145 -3.0059e-20 0.00210145)
(0.00210745 -1.94199e-06 -0.000598031 0.00210745 -2.78878e-20 0.00210745)
(0.00211327 -1.87373e-06 -0.000600231 0.00211327 -4.52048e-20 0.00211327)
(0.00211891 -1.80581e-06 -0.000602361 0.00211891 -5.7903e-20 0.00211891)
(0.00212437 -1.74204e-06 -0.000604427 0.00212437 -5.13245e-20 0.00212437)
(0.00212966 -1.67104e-06 -0.000606433 0.00212966 -4.38122e-20 0.00212966)
(0.00213477 -1.60038e-06 -0.000608368 0.00213477 -4.28258e-20 0.00213477)
(0.00213971 -1.53771e-06 -0.000610231 0.00213971 -5.20552e-20 0.00213971)
(0.00214446 -1.47164e-06 -0.000612032 0.00214446 -4.18501e-20 0.00214446)
(0.00214903 -1.40597e-06 -0.000613766 0.00214903 -2.98535e-20 0.00214903)
(0.00215341 -1.33699e-06 -0.000615425 0.00215341 -4.3625e-20 0.00215341)
(0.00215761 -1.27214e-06 -0.000617017 0.00215761 -4.59891e-20 0.00215761)
(0.00216163 -1.20776e-06 -0.000618545 0.00216163 -3.73415e-20 0.00216163)
(0.00216545 -1.14011e-06 -0.00061999 0.00216545 -3.90235e-20 0.00216545)
(0.00216909 -1.07661e-06 -0.000621372 0.00216909 -3.93639e-20 0.00216909)
(0.00217253 -1.01356e-06 -0.000622677 0.00217253 -3.53596e-20 0.00217253)
(0.00217578 -9.47367e-07 -0.00062391 0.00217578 -3.23813e-20 0.00217578)
(0.00217883 -8.81657e-07 -0.000625071 0.00217883 -2.55311e-20 0.00217883)
(0.00218168 -8.20072e-07 -0.000626148 0.00218168 -1.96023e-20 0.00218168)
(0.00218433 -7.55408e-07 -0.000627158 0.00218433 -2.46874e-20 0.00218433)
(0.00218677 -6.87706e-07 -0.000628089 0.00218677 -2.09843e-20 0.00218677)
(0.00218901 -6.20583e-07 -0.000628933 0.00218901 -1.23337e-20 0.00218901)
(0.00219104 -5.57566e-07 -0.000629704 0.00219104 -1.25652e-20 0.00219104)
(0.00219286 -4.95132e-07 -0.000630401 0.00219286 -1.64975e-20 0.00219286)
(0.00219446 -4.29766e-07 -0.000631003 0.00219446 -2.20671e-20 0.00219446)
(0.00219584 -3.61551e-07 -0.000631531 0.00219584 -1.86586e-20 0.00219584)
(0.002197 -2.97425e-07 -0.000631976 0.002197 -8.96543e-21 0.002197)
(0.00219794 -2.33974e-07 -0.000632326 0.00219794 -3.00678e-21 0.00219794)
(0.00219865 -1.64306e-07 -0.000632594 0.00219865 6.54389e-22 0.00219865)
(0.00219912 -9.87591e-08 -0.00063278 0.00219912 -2.32082e-21 0.00219912)
(0.00219936 -3.39331e-08 -0.00063287 0.00219936 -5.89095e-21 0.00219936)
(0.000510003 -2.67703e-05 -3.45196e-06 0.000510003 1.57944e-18 0.000510003)
(0.000339791 -2.19978e-05 -8.76366e-06 0.000339791 -2.96655e-19 0.000339791)
(0.000282517 -2.3035e-05 -1.58532e-05 0.000282517 -9.26585e-19 0.000282517)
(0.000282829 -2.66289e-05 -2.66289e-05 0.000282829 -9.95853e-19 0.000282829)
(0.000314205 -3.0822e-05 -4.10705e-05 0.000314205 -9.04499e-19 0.000314205)
(0.000362529 -3.45713e-05 -5.83576e-05 0.000362529 -7.17016e-19 0.000362529)
(0.000419616 -3.75357e-05 -7.7695e-05 0.000419616 -5.05996e-19 0.000419616)
(0.000480524 -3.96585e-05 -9.83634e-05 0.000480524 -3.19318e-19 0.000480524)
(0.000542275 -4.10057e-05 -0.000119739 0.000542275 -1.75147e-19 0.000542275)
(0.00060313 -4.16993e-05 -0.000141333 0.00060313 -6.84175e-20 0.00060313)
(0.000662135 -4.18773e-05 -0.000162801 0.000662135 7.17792e-21 0.000662135)
(0.00071882 -4.16676e-05 -0.000183918 0.00071882 5.35832e-20 0.00071882)
(0.000773013 -4.11764e-05 -0.000204548 0.000773013 8.48293e-20 0.000773013)
(0.0008247 -4.0489e-05 -0.000224619 0.0008247 1.05214e-19 0.0008247)
(0.000873973 -3.96696e-05 -0.000244096 0.000873973 1.14381e-19 0.000873973)
(0.000920967 -3.87652e-05 -0.000262972 0.000920967 1.20788e-19 0.000920967)
(0.00096582 -3.78107e-05 -0.000281258 0.00096582 1.2497e-19 0.00096582)
(0.00100871 -3.68311e-05 -0.000298964 0.00100871 1.24424e-19 0.00100871)
(0.00104976 -3.58443e-05 -0.000316115 0.00104976 1.19085e-19 0.00104976)
(0.00108913 -3.48599e-05 -0.000332733 0.00108913 1.11747e-19 0.00108913)
(0.00112694 -3.38951e-05 -0.000348842 0.00112694 1.11001e-19 0.00112694)
(0.00116331 -3.29437e-05 -0.000364473 0.00116331 1.06761e-19 0.00116331)