/*--------------------------------*- C++ -*----------------------------------*\
| =========                 |                                                 |
| \\      /  F ield         | OpenFOAM: The Open Source CFD Toolbox           |
|  \\    /   O peration     | Version:  2306                                  |
|   \\  /    A nd           | Website:  www.openfoam.com                      |
|    \\/     M anipulation  |                                                 |
\*---------------------------------------------------------------------------*/
FoamFile
{
    version     2.0;
    format      ascii;
    arch        "LSB;label=32;scalar=64";
    class       volSymmTensorField;
    location    "0";
    object      D;
}
// * * * * * * * * * * * * * * * * * * * * * * * * * * * * * * * * * * * * * //

dimensions      [0 0 -1 0 0 0 0];

internalField   nonuniform List<symmTensor> 
15625
(
(0 0.138573 0.138573 -2.57908e-13 -1.50369e-13 -2.57905e-13)
(0 0.115532 0.367199 2.50587e-14 -9.88249e-14 -1.73759e-13)
(4.25905e-18 0.10632 0.578376 1.1986e-13 -6.12728e-14 -7.68754e-14)
(0 0.100257 0.777503 5.07882e-14 -4.58565e-14 -3.96704e-14)
(0 0.0952813 0.966748 2.16472e-14 -3.40444e-14 -2.22244e-14)
(0 0.0905852 1.14679 1.18058e-14 -2.55703e-14 -1.26128e-14)
(0 0.0858824 1.3177 6.98201e-15 -1.99095e-14 -7.38488e-15)
(-1.65666e-17 0.0811385 1.47943 4.2393e-15 -1.60554e-14 -4.59062e-15)
(0 0.0764258 1.63203 2.73093e-15 -1.33377e-14 -3.03283e-15)
(0 0.0718392 1.77573 1.89836e-15 -1.13445e-14 -2.13249e-15)
(0 0.06746 1.91094 1.40687e-15 -9.82263e-15 -1.59888e-15)
(0 0.0633516 2.03815 1.09169e-15 -8.62053e-15 -1.24911e-15)
(0 0.0595315 2.15797 8.76702e-16 -7.64902e-15 -9.89174e-16)
(0 0.0560036 2.27094 7.17507e-16 -6.84719e-15 -8.12778e-16)
(4.77927e-17 0.0527718 2.37765 5.99374e-16 -6.18509e-15 -6.54993e-16)
(-3.16842e-17 0.0498107 2.47864 5.08554e-16 -5.62082e-15 -5.41948e-16)
(3.15076e-17 0.0470955 2.57441 4.302e-16 -5.144e-15 -4.32311e-16)
(0 0.0446099 2.66538 3.74444e-16 -4.74555e-15 -3.92292e-16)
(3.11573e-17 0.0423342 2.75199 3.33513e-16 -4.38313e-15 -3.42006e-16)
(0 0.0402406 2.83458 2.82996e-16 -4.05602e-15 -2.98435e-16)
(0 0.0383102 2.91347 2.33227e-16 -3.77724e-15 -2.86777e-16)
(0 0.0365244 2.98896 2.00898e-16 -3.53822e-15 -2.26989e-16)
(0 0.034873 3.0613 1.76149e-16 -3.33447e-15 -1.93698e-16)
(-3.02985e-17 0.033346 3.13072 1.54394e-16 -3.17088e-15 -1.58801e-16)
(-3.01296e-17 0.0319178 3.19743 1.43751e-16 -3.02006e-15 -1.67098e-16)
(0 0.0305867 3.26162 1.38584e-16 -2.8649e-15 -1.63342e-16)
(2.97947e-17 0.0293476 3.32344 1.27999e-16 -2.71597e-15 -1.63922e-16)
(0 0.0281834 3.38306 1.23912e-16 -2.58087e-15 -1.41986e-16)
(0 0.0270891 3.4406 1.12431e-16 -2.44279e-15 -1.04312e-16)
(0 0.0260598 3.4962 8.58281e-17 -2.31991e-15 -1.07787e-16)
(0 0.0250945 3.54996 7.7156e-17 -2.2228e-15 -7.52148e-17)
(0 0.0241847 3.60199 7.47741e-17 -2.12351e-15 -7.29171e-17)
(0 0.0233183 3.65238 6.15356e-17 -2.01306e-15 -9.89574e-17)
(0 0.0224982 3.70122 5.5428e-17 -1.92485e-15 -5.70106e-17)
(-5.69832e-17 0.0217239 3.74859 6.05077e-17 -1.85371e-15 -6.63472e-17)
(0 0.0209908 3.79456 5.25674e-17 -1.76236e-15 -8.31584e-17)
(2.81749e-17 0.0202911 3.83921 4.06562e-17 -1.69172e-15 -5.67363e-17)
(0 0.0196242 3.88258 4.34722e-17 -1.62195e-15 -5.98858e-17)
(0 0.0189896 3.92476 3.94095e-17 -1.54087e-15 -5.37523e-17)
(0 0.0183833 3.96577 3.37516e-17 -1.48067e-15 -6.33366e-17)
(0 0.0178048 4.00568 4.46657e-17 -1.41336e-15 -6.15459e-17)
(0 0.0172536 4.04453 5.37936e-17 -1.32215e-15 -7.54963e-17)
(0 0.0167259 4.08237 4.41179e-17 -1.23581e-15 -4.78749e-17)
(0 0.0162142 4.11924 3.62945e-17 -1.16172e-15 -4.69751e-17)
(0 0.0157288 4.15518 4.74974e-17 -1.08577e-15 -6.15177e-17)
(0 0.0152659 4.19022 3.73072e-17 -9.71596e-16 -7.52872e-17)
(0 0.0148146 4.22439 7.76397e-18 -9.14945e-16 -1.90726e-17)
(5.29892e-17 0.0143852 4.25773 2.2314e-18 -9.12553e-16 -2.5262e-17)
(5.26938e-17 0.0139705 4.29028 5.91965e-18 -8.85274e-16 -4.12586e-17)
(0 0.0135703 4.32204 2.50121e-17 -8.58066e-16 -4.0975e-17)
(-5.2108e-17 0.0131877 4.35305 3.99006e-17 -8.08979e-16 -1.6212e-17)
(0 0.0128157 4.38335 1.83257e-17 -7.6344e-16 -3.47213e-17)
(0 0.0124576 4.41294 -2.93384e-18 -7.34686e-16 -6.8224e-17)
(5.12415e-17 0.0121099 4.44186 -5.83307e-18 -7.25913e-16 -5.28889e-17)
(0 0.0117755 4.47012 6.28626e-18 -7.17131e-16 -4.8892e-17)
(0 0.0114545 4.49774 2.02963e-17 -6.81517e-16 -5.05141e-17)
(0 0.0111434 4.52474 2.26895e-17 -6.50769e-16 -3.43098e-17)
(0 0.0108418 4.55115 2.67891e-17 -6.2631e-16 -5.3434e-17)
(0 0.0105466 4.57697 2.16453e-17 -5.67678e-16 -3.4751e-17)
(0 0.010264 4.60223 -5.32847e-18 -5.28508e-16 -2.47101e-17)
(0 0.00998755 4.62693 -1.46626e-17 -5.60257e-16 -1.24214e-17)
(0 0.00971699 4.65109 7.67587e-18 -5.71391e-16 -8.85272e-17)
(0 0.00946191 4.67472 2.56356e-17 -5.2371e-16 -1.07021e-16)
(0 0.00920939 4.69785 2.19386e-17 -4.66022e-16 -6.32864e-17)
(0 0.00896252 4.72048 9.87574e-18 -4.16864e-16 -5.6867e-17)
(0 0.00872441 4.74262 -5.69119e-18 -3.76554e-16 -8.07764e-17)
(4.76499e-17 0.00849178 4.76427 -6.84918e-18 -3.5718e-16 -4.18756e-17)
(0 0.00826458 4.78547 9.02434e-18 -3.20706e-16 -4.50943e-17)
(0 0.0080458 4.8062 5.99505e-18 -2.88771e-16 -1.60472e-17)
(-4.68575e-17 0.0078323 4.82649 -1.06947e-17 -2.85084e-16 -2.29772e-17)
(0 0.00762091 4.84634 -3.00032e-17 -2.87641e-16 3.46657e-18)
(0 0.0074177 4.86576 -3.76904e-17 -3.26976e-16 1.91236e-17)
(0 0.00721653 4.88476 -3.23665e-17 -3.58879e-16 -1.08009e-17)
(4.58214e-17 0.00702035 4.90334 -3.91354e-17 -3.5605e-16 -2.67824e-17)
(0 0.00683211 4.92151 -3.13419e-17 -3.81431e-16 3.26714e-17)
(0 0.00664576 4.93928 -1.03857e-17 -4.12012e-16 1.53646e-17)
(-4.50594e-17 0.00646421 4.95666 3.9624e-18 -4.22882e-16 -1.41683e-17)
(0 0.00628449 4.97364 9.70838e-18 -4.10336e-16 -3.73066e-17)
(4.45584e-17 0.00610947 4.99024 -1.92228e-17 -4.06668e-16 -8.56757e-18)
(4.43101e-17 0.00593913 5.00647 -2.81817e-17 -4.62998e-16 2.0378e-17)
(0 0.00577048 5.02232 -1.38168e-18 -4.80236e-16 3.06348e-18)
(0 0.0056064 5.0378 1.19047e-17 -4.55221e-16 -1.07829e-17)
(0 0.00544397 5.05292 2.41884e-17 -4.2023e-16 -4.64234e-17)
(0 0.00528318 5.06767 2.00774e-17 -3.7068e-16 -5.04116e-17)
(4.30888e-17 0.00512964 5.08207 2.91799e-18 -3.36921e-16 -3.55527e-17)
(4.28486e-17 0.00497768 5.09612 9.73787e-18 -2.96666e-16 -3.53174e-17)
(0 0.00482443 5.10981 2.03066e-17 -2.36052e-16 -6.6848e-17)
(0 0.00467553 5.12316 -1.76483e-18 -1.89572e-16 -4.84915e-17)
(0 0.00452813 5.13616 -3.87461e-17 -1.88655e-16 1.96678e-17)
(0 0.00438497 5.14882 -6.05435e-17 -2.58672e-16 7.51853e-17)
(0 0.00424599 5.16114 -5.79284e-17 -3.55656e-16 5.36001e-17)
(0 0.00410573 5.17313 -3.42486e-17 -4.25074e-16 -7.70832e-19)
(0 0.00396688 5.18477 -2.54616e-17 -4.67511e-16 2.99697e-17)
(0 0.00382946 5.19608 -3.75812e-17 -4.89979e-16 4.76611e-17)
(4.07462e-17 0.0036961 5.20706 -9.55557e-19 -5.34591e-16 7.46127e-18)
(-1.21557e-16 0.00356414 5.2177 6.01464e-17 -4.95809e-16 -3.77667e-17)
(-4.02932e-17 0.00343088 5.22801 4.93344e-17 -4.08096e-16 -4.88264e-17)
(4.00686e-17 0.00330162 5.23799 1.34713e-17 -3.74348e-16 5.14963e-19)
(0 0.00317369 5.24764 1.02672e-17 -3.3636e-16 -1.27519e-17)
(0 0.00304709 5.25696 6.78786e-18 -3.04161e-16 6.614e-19)
(0 0.00291922 5.26595 6.11616e-18 -3.07156e-16 9.34372e-18)
(-3.91827e-17 0.00279268 5.2746 1.9685e-17 -2.78741e-16 -6.61247e-17)
(0 0.00267001 5.28292 1.20284e-17 -2.21789e-16 -1.89785e-17)
(0 0.00254863 5.29091 -3.99096e-18 -2.0891e-16 -4.19208e-17)
(0 0.00242599 5.29857 9.21061e-18 -1.75431e-16 -6.66909e-17)
(0 0.00230464 5.30589 6.69193e-18 -1.12956e-16 -4.34882e-17)
(0 0.00218457 5.31287 -1.82687e-17 -9.22345e-17 -1.21263e-17)
(0 0.00206329 5.31952 -1.55164e-17 -1.0514e-16 -5.91592e-18)
(3.76791e-17 0.00194328 5.32582 -7.78613e-18 -9.37153e-17 3.71931e-18)
(0 0.00182456 5.33179 -2.32107e-17 -7.85341e-17 -1.58322e-17)
(3.72602e-17 0.00170709 5.33741 -3.41582e-17 -1.04615e-16 -1.48261e-18)
(0 0.00159088 5.34268 -5.20847e-18 -1.09044e-16 -9.66488e-18)
(-3.68459e-17 0.00147351 5.3476 -3.43173e-18 -3.41094e-18 -1.56963e-17)
(-3.66405e-17 0.0013526 5.35218 -4.12206e-17 2.38011e-17 5.79659e-17)
(0 0.00123535 5.35638 -5.71925e-17 4.51029e-18 1.60146e-17)
(7.24664e-17 0.00112177 5.36024 -4.70189e-17 -8.26438e-18 -2.54923e-17)
(0 0.00100234 5.36373 1.18316e-17 9.45908e-18 -7.63497e-17)
(0 0.000884184 5.36685 4.29586e-17 1.13067e-16 -2.91279e-17)
(7.12613e-17 0.000769665 5.3696 1.02965e-17 1.83004e-16 -3.36647e-17)
(0 0.000651758 5.37197 -2.46016e-17 2.14899e-16 2.6217e-17)
(0 0.000532829 5.37396 -3.77202e-17 1.80786e-16 6.37796e-17)
(0 0.000417492 5.37557 -4.31173e-17 1.56528e-16 1.09203e-16)
(0 0.000298889 5.37679 -3.22292e-17 1.04747e-16 5.79518e-17)
(0 0.000177035 5.3776 -1.64727e-17 1.00107e-16 -3.68087e-17)
(0 5.87921e-05 5.37801 -4.79676e-17 5.768e-17 3.09213e-17)
(0 0.367199 0.115532 -1.7375e-13 -9.88384e-14 2.50651e-14)
(0 0.322446 0.322446 -4.20311e-14 9.57866e-14 -4.20726e-14)
(0 0.299997 0.520116 5.62745e-14 4.85939e-14 -5.04459e-14)
(0 0.282193 0.708335 4.16875e-14 9.57428e-15 -3.87113e-14)
(0 0.266344 0.887153 2.75795e-14 -3.26943e-15 -2.67503e-14)
(3.3319e-17 0.251171 1.0563 1.90638e-14 -7.82279e-15 -1.82903e-14)
(0 0.23623 1.2155 1.32538e-14 -9.25217e-15 -1.2589e-14)
(-3.29486e-17 0.221538 1.36474 9.26147e-15 -9.2609e-15 -8.83815e-15)
(6.55298e-17 0.207305 1.50428 6.64228e-15 -8.68928e-15 -6.37737e-15)
(0 0.19375 1.63462 4.94282e-15 -7.97243e-15 -4.74978e-15)
(0 0.181039 1.7564 3.8097e-15 -7.2481e-15 -3.66237e-15)
(0 0.169261 1.8703 3.02677e-15 -6.55534e-15 -2.91966e-15)
(0 0.158444 1.97701 2.45445e-15 -5.94668e-15 -2.36061e-15)
(0 0.148559 2.07721 2.01085e-15 -5.42014e-15 -1.94443e-15)
(-6.33684e-17 0.139556 2.17149 1.67828e-15 -4.96964e-15 -1.61901e-15)
(-6.30152e-17 0.131362 2.26043 1.41509e-15 -4.57715e-15 -1.35469e-15)
(0 0.123895 2.3445 1.17903e-15 -4.26044e-15 -1.12878e-15)
(0 0.117084 2.42416 1.01622e-15 -3.99679e-15 -9.71519e-16)
(-1.23934e-16 0.110864 2.49978 9.161e-16 -3.72507e-15 -8.5089e-16)
(0 0.10516 2.57173 8.02976e-16 -3.5034e-15 -7.31822e-16)
(0 0.0999237 2.64031 6.87064e-16 -3.28137e-15 -6.47111e-16)
(0 0.0951033 2.70577 5.84946e-16 -3.07882e-15 -5.72861e-16)
(0 0.0906445 2.76839 4.80411e-16 -2.93221e-15 -5.0692e-16)
(0 0.0865221 2.82835 4.10707e-16 -2.81678e-15 -4.50447e-16)
(5.99234e-17 0.0826952 2.88586 3.95156e-16 -2.7086e-15 -4.2039e-16)
(0 0.079128 2.94109 3.85795e-16 -2.58551e-15 -3.91898e-16)
(0 0.0758008 2.99419 3.56003e-16 -2.45968e-15 -3.72033e-16)
(0 0.0726944 3.0453 3.41906e-16 -2.3288e-15 -3.4021e-16)
(0 0.0697822 3.09455 3.3008e-16 -2.24443e-15 -2.61644e-16)
(0 0.0670499 3.14204 2.84479e-16 -2.16426e-15 -2.45095e-16)
(0 0.0644793 3.1879 2.67549e-16 -2.07988e-15 -2.48526e-16)
(0 0.0620529 3.2322 2.84908e-16 -2.02026e-15 -2.75999e-16)
(0 0.0597685 3.27503 2.67379e-16 -1.90489e-15 -2.91949e-16)
(0 0.0576051 3.31649 2.21525e-16 -1.80613e-15 -2.42647e-16)
(0 0.0555572 3.35663 2.0329e-16 -1.77721e-15 -1.73549e-16)
(0 0.0536194 3.39553 1.97977e-16 -1.71263e-15 -1.84477e-16)
(0 0.0517752 3.43324 1.93813e-16 -1.63895e-15 -1.77595e-16)
(-2.22893e-16 0.0500269 3.46983 2.04639e-16 -1.58788e-15 -1.4015e-16)
(0 0.0483622 3.50536 1.90743e-16 -1.54332e-15 -1.55338e-16)
(1.10208e-16 0.0467688 3.53986 1.79321e-16 -1.48094e-15 -1.92872e-16)
(0 0.0452567 3.57336 2.11559e-16 -1.41576e-15 -1.75006e-16)
(-2.17965e-16 0.0438102 3.60594 2.2971e-16 -1.33518e-15 -2.1544e-16)
(0 0.0424247 3.63762 2.12756e-16 -1.26148e-15 -1.80832e-16)
(0 0.0411065 3.66846 2.06671e-16 -1.22135e-15 -1.42375e-16)
(0 0.0398405 3.69848 2.40572e-16 -1.16525e-15 -1.36021e-16)
(-1.06573e-16 0.0386225 3.72771 2.09318e-16 -1.07926e-15 -1.34854e-16)
(0 0.0374551 3.75619 8.752e-17 -1.03182e-15 -1.09824e-16)
(0 0.0363376 3.78392 4.76725e-17 -1.04083e-15 -6.56044e-17)
(0 0.0352626 3.81092 7.28833e-17 -1.0239e-15 -7.3963e-17)
(0 0.0342258 3.83729 1.03176e-16 -9.78418e-16 -8.69565e-17)
(0 0.0332336 3.863 1.22751e-16 -9.39458e-16 -1.02948e-16)
(1.03057e-16 0.0322751 3.88807 8.95875e-17 -9.30391e-16 -8.32855e-17)
(1.02483e-16 0.0313465 3.91253 4.25276e-17 -8.99529e-16 -9.72897e-17)
(1.01912e-16 0.0304574 3.93636 2.99511e-17 -8.70335e-16 -9.45178e-17)
(0 0.0295973 3.95966 6.42741e-17 -8.58519e-16 -8.00723e-17)
(2.01557e-16 0.0287624 3.98242 7.7536e-17 -8.12763e-16 -1.36599e-16)
(0 0.027959 4.00463 5.85045e-17 -8.00175e-16 -9.49405e-17)
(0 0.0271833 4.02633 8.23066e-17 -7.85542e-16 -8.96963e-17)
(9.91027e-17 0.0264318 4.04748 1.07874e-16 -7.57559e-16 -7.46724e-17)
(0 0.0257007 4.06821 3.969e-17 -7.3816e-16 -8.01588e-17)
(1.96002e-16 0.024993 4.08841 -2.26814e-17 -7.55758e-16 -6.80787e-17)
(9.74547e-17 0.0243117 4.10819 2.92531e-17 -7.63054e-16 -1.68958e-16)
(0 0.0236469 4.12748 1.02988e-16 -6.89406e-16 -1.6536e-16)
(0 0.0230013 4.14632 1.31253e-16 -6.48194e-16 -9.82295e-17)
(1.91668e-16 0.0223779 4.16478 1.21896e-16 -6.46525e-16 -8.4117e-17)
(0 0.0217671 4.18278 8.59908e-17 -5.92441e-16 -1.06463e-16)
(9.47686e-17 0.0211749 4.20038 7.41968e-17 -5.53808e-16 -7.81253e-17)
(-1.88481e-16 0.020601 4.21762 8.83121e-17 -5.53869e-16 -8.78832e-17)
(0 0.0200421 4.23445 5.387e-17 -5.21166e-16 -1.20442e-16)
(0 0.0194949 4.25086 3.08836e-18 -5.08085e-16 -5.98516e-17)
(9.26731e-17 0.0189623 4.26695 -2.54235e-17 -5.09927e-16 -3.20085e-17)
(0 0.0184472 4.28266 -3.89326e-17 -5.36806e-16 4.19227e-17)
(0 0.0179403 4.298 -8.58086e-18 -5.56682e-16 3.50639e-17)
(9.1132e-17 0.0174444 4.31302 -9.93803e-19 -5.0915e-16 1.23874e-17)
(0 0.0169625 4.32765 -3.42562e-17 -5.01523e-16 5.10015e-17)
(-1.80238e-16 0.0164943 4.34194 -4.01783e-17 -5.65444e-16 1.00254e-16)
(0 0.0160337 4.35595 -1.04661e-17 -5.90212e-16 5.29191e-17)
(0 0.0155807 4.36961 1.12088e-18 -5.61303e-16 -4.02708e-17)
(0 0.015141 4.38294 -5.40977e-17 -5.44178e-16 -5.0953e-17)
(0 0.0147115 4.39596 -6.1985e-17 -5.76298e-16 8.10979e-18)
(0 0.0142892 4.40869 1.74649e-17 -6.02873e-16 -4.2627e-17)
(0 0.0138741 4.42108 7.10237e-17 -5.92871e-16 -7.56522e-17)
(0 0.0134659 4.43316 8.68916e-17 -5.54902e-16 -7.08283e-17)
(0 0.0130676 4.44499 8.22634e-17 -5.01513e-16 -8.94655e-17)
(0 0.0126789 4.45647 8.83938e-17 -4.77324e-16 -1.59752e-18)
(-1.70439e-16 0.0122969 4.46769 1.11581e-16 -4.6074e-16 -1.33676e-17)
(-1.69489e-16 0.0119189 4.47861 1.01033e-16 -4.21843e-16 -5.19012e-17)
(0 0.0115446 4.48926 5.09292e-17 -3.615e-16 -4.12791e-17)
(0 0.0111797 4.49962 -4.35903e-17 -3.39532e-16 1.95311e-18)
(0 0.0108239 4.50971 -1.27209e-16 -4.04183e-16 6.54129e-17)
(0 0.0104691 4.51949 -1.34892e-16 -4.84962e-16 5.80621e-17)
(0 0.0101179 4.52901 -1.06768e-16 -4.9652e-16 4.08886e-18)
(1.63899e-16 0.00977832 4.53827 -5.6841e-17 -5.07731e-16 3.7408e-17)
(1.62985e-16 0.00943958 4.54722 -3.28759e-17 -5.44254e-16 5.18744e-17)
(0 0.00910162 4.55595 2.20563e-18 -5.64288e-16 1.43468e-18)
(0 0.00877244 4.56437 7.89803e-17 -5.49e-16 -8.20299e-17)
(1.60275e-16 0.00844929 4.57253 8.21799e-17 -4.8147e-16 -1.71193e-16)
(0 0.00812686 4.58042 7.07422e-17 -4.55889e-16 -8.14403e-17)
(0 0.00780775 4.58805 7.22814e-17 -4.33236e-16 -3.17434e-17)
(0 0.00749195 4.59546 3.40377e-17 -4.09322e-16 -2.2616e-17)
(0 0.00717942 4.60252 3.02523e-17 -4.39394e-16 -7.98097e-17)
(0 0.00687016 4.60936 7.08519e-17 -4.08163e-16 -6.23469e-17)
(0 0.0065641 4.61593 7.19283e-17 -3.81241e-16 1.58842e-17)
(1.54124e-16 0.00626126 4.62224 6.25398e-17 -3.65702e-16 -8.47698e-17)
(3.0653e-16 0.00595655 4.62829 7.67325e-17 -3.07718e-16 -1.35475e-16)
(1.52411e-16 0.00565752 4.63403 7.36856e-17 -2.9813e-16 -6.6671e-17)
(0 0.00536416 4.63955 4.11892e-17 -2.73278e-16 -9.50341e-17)
(0 0.00506646 4.64477 2.02773e-17 -2.51757e-16 -8.97995e-17)
(0 0.00477189 4.64973 3.55777e-17 -2.64231e-16 -8.0254e-17)
(0 0.00448047 4.65442 1.52177e-17 -2.4804e-16 -5.315e-17)
(0 0.00418969 4.65886 1.95153e-18 -2.3464e-16 -4.29869e-17)
(-1.47384e-16 0.00389961 4.66299 1.07813e-16 -2.36306e-16 -4.54746e-17)
(1.46562e-16 0.00361021 4.66686 1.4966e-16 -1.56326e-16 -1.00747e-16)
(1.45745e-16 0.00332153 4.67048 5.77973e-17 -1.05985e-16 -1.14472e-16)
(0 0.00303355 4.6738 1.90645e-17 -1.37635e-16 -2.37257e-17)
(1.44125e-16 0.00274633 4.67681 4.73605e-17 -1.17245e-16 -5.5791e-17)
(0 0.00245748 4.67952 1.14862e-16 -4.27406e-17 -6.60016e-17)
(0 0.00217177 4.68199 1.38405e-16 2.15982e-17 -7.2412e-17)
(0 0.00188452 4.68416 8.8174e-17 7.36995e-17 -1.24764e-17)
(-1.40938e-16 0.00159576 4.68603 2.09423e-17 1.02152e-16 6.65739e-17)
(0 0.00131015 4.68756 -1.40685e-17 9.33205e-17 8.40568e-17)
(0 0.00102082 4.68885 -2.69086e-17 6.52911e-17 6.72498e-17)
(0 0.000727812 4.6898 -2.03575e-17 1.62009e-17 4.18727e-17)
(0 0.000438041 4.69042 -3.62683e-17 4.35862e-17 1.20996e-17)
(0 0.00014698 4.69075 -1.14274e-16 4.20482e-17 1.08207e-16)
(4.25905e-18 0.578376 0.10632 -7.6877e-14 -6.12897e-14 1.1987e-13)
(0 0.520116 0.299997 -5.04089e-14 4.8575e-14 5.6249e-14)
(-1.68468e-17 0.490074 0.490074 1.89104e-15 4.70519e-14 1.8715e-15)
(6.70115e-17 0.463237 0.673093 1.4189e-14 2.7067e-14 -1.37559e-14)
(0 0.437484 0.8471 1.65655e-14 1.45264e-14 -1.61969e-14)
(0 0.411697 1.01071 1.50441e-14 6.78588e-15 -1.45397e-14)
(0 0.385848 1.16312 1.23384e-14 2.21426e-15 -1.19201e-14)
(0 0.360421 1.30429 9.71375e-15 -2.59413e-16 -9.43088e-15)
(0 0.335972 1.43476 7.57269e-15 -1.46945e-15 -7.41513e-15)
(6.48012e-17 0.312941 1.5554 5.95793e-15 -2.00625e-15 -5.84482e-15)
(0 0.291586 1.66715 4.7961e-15 -2.18578e-15 -4.67586e-15)
(-6.40808e-17 0.271985 1.77098 3.93219e-15 -2.13737e-15 -3.79601e-15)
(1.27447e-16 0.254108 1.86774 3.24854e-15 -2.00085e-15 -3.12259e-15)
(1.26737e-16 0.237873 1.95821 2.69007e-15 -1.83731e-15 -2.60406e-15)
(1.2603e-16 0.223154 2.04306 2.25891e-15 -1.65679e-15 -2.19984e-15)
(0 0.209795 2.12286 1.91866e-15 -1.48e-15 -1.86491e-15)
(1.24629e-16 0.197658 2.19814 1.60408e-15 -1.33343e-15 -1.61816e-15)
(0 0.18661 2.26931 1.39581e-15 -1.21541e-15 -1.3886e-15)
(0 0.176532 2.33677 1.25907e-15 -1.07145e-15 -1.2172e-15)
(0 0.167314 2.40084 1.10958e-15 -9.3868e-16 -1.05199e-15)
(-2.43747e-16 0.158847 2.46181 9.73934e-16 -8.26947e-16 -8.87106e-16)
(0 0.151059 2.51997 8.31164e-16 -7.15183e-16 -8.31764e-16)
(0 0.143876 2.57546 6.89038e-16 -6.09831e-16 -7.4123e-16)
(0 0.137223 2.6286 5.95229e-16 -5.36278e-16 -6.77569e-16)
(0 0.131051 2.67946 5.65415e-16 -4.66407e-16 -5.98038e-16)
(0 0.125312 2.72822 5.59345e-16 -3.85025e-16 -5.1639e-16)
(-1.17854e-16 0.119965 2.77507 5.40096e-16 -2.99213e-16 -4.62762e-16)
(0 0.114964 2.82009 4.91246e-16 -1.73057e-16 -4.52533e-16)
(0 0.110277 2.86343 4.22573e-16 -1.20177e-16 -4.42515e-16)
(0 0.105885 2.90514 3.71295e-16 -1.22093e-16 -3.93864e-16)
(0 0.101755 2.94541 3.47561e-16 -9.9223e-17 -3.85508e-16)
(1.14605e-16 0.0978656 2.98425 3.77779e-16 -7.25349e-17 -4.0196e-16)
(1.13966e-16 0.0941973 3.02173 3.85748e-16 3.66468e-17 -4.29184e-16)
(1.13331e-16 0.0907281 3.058 2.86462e-16 1.44496e-16 -3.61436e-16)
(0 0.0874476 3.09306 2.3723e-16 1.274e-16 -3.00939e-16)
(0 0.084338 3.12698 2.63725e-16 1.21481e-16 -2.716e-16)
(0 0.0813858 3.15985 2.45559e-16 1.91463e-16 -2.20052e-16)
(-2.21651e-16 0.0785923 3.19167 2.15009e-16 1.94787e-16 -1.63091e-16)
(0 0.0759295 3.22252 2.1884e-16 1.59562e-16 -1.83463e-16)
(0 0.0733666 3.25247 2.37701e-16 2.00802e-16 -2.00098e-16)
(0 0.0709379 3.28152 2.62607e-16 2.23259e-16 -2.01458e-16)
(0 0.0686417 3.30971 2.73648e-16 2.5473e-16 -1.88377e-16)
(0 0.0664402 3.33712 2.39259e-16 3.21672e-16 -2.32967e-16)
(0 0.0643321 3.36371 2.16889e-16 3.15682e-16 -1.65688e-16)
(0 0.0623159 3.38958 2.45872e-16 2.93073e-16 -1.75478e-16)
(0 0.0603904 3.41476 2.17786e-16 3.16188e-16 -1.48758e-16)
(-2.10775e-16 0.0585193 3.43922 1.02815e-16 3.52969e-16 -1.78478e-16)
(0 0.0567018 3.46307 4.95139e-17 3.35248e-16 -1.11933e-16)
(0 0.0550061 3.48625 7.86416e-17 3.11809e-16 -7.36806e-17)
(0 0.0533964 3.50882 1.28834e-16 3.17004e-16 -6.35183e-17)
(0 0.0518028 3.53077 1.37581e-16 3.34966e-16 -1.11445e-16)
(0 0.0502592 3.55221 9.67545e-17 3.36786e-16 -1.14618e-16)
(0 0.0487651 3.57303 6.39308e-17 3.46244e-16 -1.03376e-16)
(0 0.0473528 3.59336 4.59529e-17 3.82781e-16 -1.5948e-16)
(0 0.0460217 3.61317 8.95798e-17 3.55222e-16 -9.00219e-17)
(0 0.044704 3.63251 1.09385e-16 3.86363e-16 -1.34018e-16)
(0 0.0434324 3.65135 7.05167e-17 4.32385e-16 -1.00185e-16)
(0 0.0421738 3.66973 8.40843e-17 4.18935e-16 -9.87457e-17)
(-1.97101e-16 0.0409928 3.68767 9.06299e-17 4.31044e-16 -1.13662e-16)
(0 0.0398564 3.70513 2.16288e-17 4.26479e-16 -8.19785e-17)
(0 0.0387311 3.72218 -1.45777e-17 3.52152e-16 -8.78054e-17)
(0 0.0376495 3.73885 7.22523e-17 3.52459e-16 -1.05829e-16)
(0 0.0365785 3.7551 1.36407e-16 4.73925e-16 -1.42769e-16)
(0 0.0355817 3.77095 1.00796e-16 4.7887e-16 -1.27021e-16)
(0 0.0345951 3.7864 9.91183e-17 4.03388e-16 -8.47601e-17)
(0 0.0336182 3.80149 1.00985e-16 4.11179e-16 -4.14098e-17)
(0 0.0327134 3.81624 5.16139e-17 4.30438e-16 -7.69461e-17)
(0 0.0318179 3.83062 5.73179e-17 3.8918e-16 -9.63127e-17)
(0 0.0309005 3.84465 6.09885e-17 3.96746e-16 -1.18635e-16)
(0 0.0300534 3.85837 4.92482e-18 4.32716e-16 -9.48727e-17)
(0 0.0292456 3.87174 -5.47618e-17 4.52374e-16 -5.1062e-17)
(3.66571e-16 0.0284154 3.88479 -8.03052e-17 4.11595e-16 1.67523e-17)
(0 0.0276236 3.89756 -1.91544e-17 3.34635e-16 8.33428e-17)
(0 0.02684 3.91001 5.66226e-18 3.58343e-16 5.03839e-17)
(0 0.0260641 3.92211 -7.49435e-17 3.9571e-16 3.66467e-17)
(-1.79233e-16 0.0253553 3.93397 -9.0505e-17 3.25482e-16 8.21514e-17)
(-1.78234e-16 0.0246537 3.94553 -4.62161e-18 2.39269e-16 7.04471e-17)
(0 0.0239298 3.95678 3.33897e-17 2.62849e-16 -7.55869e-17)
(-3.52505e-16 0.0232422 3.96778 -3.57331e-17 3.6586e-16 -1.24894e-16)
(1.7527e-16 0.0225907 3.9785 -7.16557e-17 3.63226e-16 -7.73214e-17)
(0 0.021917 3.98896 -4.07587e-18 3.12997e-16 -9.97195e-17)
(0 0.0212499 3.99914 6.97766e-17 3.41266e-16 -1.15883e-16)
(-1.72355e-16 0.0206465 4.00904 1.11788e-16 3.3388e-16 -9.41689e-17)
(0 0.0200212 4.01871 9.88692e-17 3.72318e-16 -1.2049e-16)
(0 0.0194018 4.02815 7.18838e-17 3.89737e-16 -1.00464e-16)
(-3.38978e-16 0.018817 4.03729 9.42606e-17 3.21563e-16 -4.21971e-17)
(0 0.018238 4.04619 1.09818e-16 3.28295e-16 -2.16586e-17)
(-1.67605e-16 0.017665 4.0549 5.74856e-17 3.54682e-16 -1.88989e-17)
(0 0.0170977 4.06331 -7.31548e-17 3.73156e-16 -5.95783e-17)
(0 0.0165363 4.07152 -1.7941e-16 3.37293e-16 -6.91359e-19)
(3.29635e-16 0.0159804 4.07948 -1.57543e-16 2.68347e-16 4.57363e-17)
(0 0.0154575 4.08723 -1.00654e-16 2.97604e-16 9.20945e-17)
(-1.62985e-16 0.014913 4.09473 -7.89594e-17 3.19287e-16 9.71759e-17)
(3.24153e-16 0.0144006 4.10202 -6.70444e-17 2.61713e-16 5.64566e-17)
(0 0.0138938 4.10905 -3.31187e-18 2.07319e-16 -6.44779e-18)
(0 0.0133655 4.11588 1.24518e-16 1.91935e-16 -1.20259e-16)
(0 0.0128691 4.12249 1.3788e-16 3.10475e-16 -1.93627e-16)
(0 0.0123778 4.12884 8.21187e-17 3.96892e-16 -1.43709e-16)
(3.15218e-16 0.0119176 4.13499 6.79587e-17 3.51119e-16 5.8094e-18)
(0 0.0114105 4.14096 1.45645e-17 2.99167e-16 -2.84825e-17)
(3.11714e-16 0.0109083 4.14668 1.65776e-17 2.91904e-16 -1.02168e-16)
(0 0.0104629 4.15214 6.29879e-17 3.54195e-16 5.1614e-17)
(-3.08248e-16 0.00999662 4.15744 6.13087e-17 2.84281e-16 2.79223e-17)
(0 0.00953517 4.16252 8.09861e-17 2.02464e-16 -2.12651e-17)
(-1.52411e-16 0.0090534 4.16735 7.46411e-17 2.95407e-16 -1.12107e-16)
(-3.03122e-16 0.00860158 4.17197 4.52218e-17 3.10956e-16 -6.2751e-17)
(0 0.00815479 4.17642 3.10019e-17 2.5213e-16 -4.53955e-17)
(0 0.00768771 4.18058 2.52696e-18 2.63135e-16 -9.96272e-17)
(-2.98081e-16 0.00725031 4.18458 3.84717e-18 2.65093e-16 -3.25732e-17)
(0 0.00681755 4.18832 5.51467e-19 2.3784e-16 2.89835e-17)
(0 0.00636507 4.19186 -1.97014e-17 2.1756e-16 1.60976e-17)
(0 0.00591729 4.1952 6.74537e-17 1.71353e-16 -2.03182e-17)
(-2.9149e-16 0.00549848 4.19825 1.19345e-16 1.31431e-16 -1.00539e-16)
(0 0.00506025 4.20115 1.37113e-17 1.65374e-16 -1.28916e-16)
(-2.8825e-16 0.00460282 4.20381 -3.01561e-17 1.40448e-16 -3.21059e-17)
(0 0.00415033 4.20618 3.5729e-17 8.2485e-17 7.74779e-17)
(0 0.00372626 4.20837 1.20448e-16 8.39741e-17 8.50938e-17)
(0 0.00330692 4.21036 1.47931e-16 1.10185e-16 3.85116e-17)
(0 0.00286876 4.21204 8.66473e-17 1.47301e-16 1.22837e-16)
(-2.80305e-16 0.00241225 4.21354 -9.95063e-18 1.24489e-16 1.45614e-16)
(0 0.00198361 4.21482 -5.64544e-17 5.97929e-17 1.13604e-16)
(0 0.00155993 4.21578 -6.98058e-17 2.00465e-17 9.97083e-18)
(0 0.00109517 4.21654 -5.34727e-17 -4.36181e-18 9.88263e-17)
(0 0.000658167 4.21708 -3.93219e-17 1.54668e-17 1.28657e-16)
(0 0.000226124 4.21733 -1.1963e-16 3.92562e-17 2.07141e-16)
(0 0.777503 0.100257 -3.96769e-14 -4.58723e-14 5.07978e-14)
(0 0.708335 0.282193 -3.86811e-14 9.55237e-15 4.16762e-14)
(-1.00517e-16 0.673093 0.463237 -1.37424e-14 2.70752e-14 1.41887e-14)
(0 0.637234 0.637234 -6.14291e-16 2.3831e-14 -6.17175e-16)
(0 0.600212 0.799786 6.44476e-15 1.76138e-14 -7.14725e-15)
(0 0.561937 0.948571 8.88829e-15 1.16547e-14 -9.20308e-15)
(0 0.523318 1.08321 8.94464e-15 7.05453e-15 -9.10507e-15)
(-6.51645e-17 0.485688 1.20463 8.0507e-15 3.91061e-15 -8.16135e-15)
(0 0.450115 1.31436 6.90808e-15 1.92257e-15 -7.01088e-15)
(0 0.417201 1.41404 5.81551e-15 6.84516e-16 -5.89491e-15)
(0 0.387168 1.50515 4.91984e-15 -6.63619e-17 -4.92666e-15)
(0 0.359985 1.58895 4.18443e-15 -4.62929e-16 -4.09845e-15)
(0 0.335472 1.66649 3.53867e-15 -6.9112e-16 -3.44557e-15)
(-2.52061e-16 0.313397 1.73862 3.00547e-15 -8.14391e-16 -2.90702e-15)
(0 0.293507 1.80602 2.5769e-15 -8.46284e-16 -2.48669e-15)
(0 0.275549 1.86925 2.20428e-15 -8.58579e-16 -2.13456e-15)
(1.23934e-16 0.259297 1.92881 1.85824e-15 -8.57014e-16 -1.91124e-15)
(1.23244e-16 0.244546 1.98502 1.62648e-15 -8.26131e-16 -1.66973e-15)
(-2.45113e-16 0.231118 2.03826 1.48661e-15 -7.67843e-16 -1.45327e-15)
(0 0.218838 2.08878 1.31021e-15 -7.01506e-16 -1.27198e-15)
(2.42388e-16 0.207624 2.13682 1.13724e-15 -6.79931e-16 -1.12904e-15)
(0 0.197282 2.18263 1.00304e-15 -6.39331e-16 -1.03909e-15)
(0 0.187766 2.22633 8.49798e-16 -5.71296e-16 -9.25425e-16)
(0 0.178986 2.2681 7.28161e-16 -5.23535e-16 -8.52131e-16)
(-2.37029e-16 0.17077 2.30814 6.95987e-16 -4.5616e-16 -7.07152e-16)
(0 0.16319 2.3465 6.80278e-16 -4.12345e-16 -6.19712e-16)
(-2.34393e-16 0.156118 2.38333 6.7213e-16 -4.02473e-16 -5.29499e-16)
(-2.33087e-16 0.149508 2.41873 6.16477e-16 -3.66223e-16 -5.16094e-16)
(2.31788e-16 0.143313 2.45275 4.86459e-16 -3.13818e-16 -5.85748e-16)
(0 0.137529 2.48557 4.09011e-16 -2.72777e-16 -5.44149e-16)
(2.29211e-16 0.132109 2.51713 4.05559e-16 -2.66256e-16 -4.8855e-16)
(0 0.126935 2.54759 4.76107e-16 -2.77052e-16 -4.22062e-16)
(-2.26662e-16 0.122117 2.577 5.15531e-16 -1.7246e-16 -3.82196e-16)
(2.25399e-16 0.117573 2.60541 3.68571e-16 -6.96395e-17 -4.03088e-16)
(0 0.113225 2.63285 2.45034e-16 -8.25366e-17 -4.08597e-16)
(-2.22893e-16 0.109145 2.65941 2.979e-16 -6.08193e-17 -3.34952e-16)
(2.21651e-16 0.105254 2.68511 3.01724e-16 -1.89531e-17 -2.71393e-16)
(0 0.10155 2.71 2.19875e-16 -4.92839e-17 -2.50685e-16)
(0 0.0980666 2.73409 2.29687e-16 -8.7699e-17 -2.13495e-16)
(-2.17965e-16 0.0947274 2.75743 2.70407e-16 -6.06051e-17 -1.9552e-16)
(0 0.0915305 2.7801 2.92104e-16 -2.8486e-17 -2.09165e-16)
(-2.15541e-16 0.0885098 2.80206 3.27374e-16 -2.9658e-17 -1.40633e-16)
(-2.1434e-16 0.0855914 2.82335 2.80662e-16 2.95761e-17 -1.87284e-16)
(4.2629e-16 0.0828089 2.84407 2.09272e-16 4.09957e-17 -1.72291e-16)
(0 0.0801961 2.86412 2.43528e-16 1.60291e-17 -1.70728e-16)
(-2.10775e-16 0.0776449 2.88364 2.45849e-16 2.37528e-17 -8.87817e-17)
(0 0.075224 2.90259 1.14993e-16 4.57769e-17 -1.43973e-16)
(2.08432e-16 0.0728975 2.92105 4.24987e-17 6.61608e-17 -1.18894e-16)
(2.0727e-16 0.0706287 2.93901 7.87216e-17 4.74183e-17 -1.29648e-16)
(-4.1223e-16 0.0684518 2.9564 1.36381e-16 2.80742e-17 -1.50064e-16)
(0 0.0663989 2.97335 1.52182e-16 1.72877e-17 -1.33652e-16)
(0 0.0644012 2.98986 1.10973e-16 3.50847e-17 -1.54223e-16)
(0 0.0624569 3.00592 8.87183e-17 1.96102e-17 -1.08065e-16)
(2.01557e-16 0.0606332 3.02158 5.85948e-17 9.00937e-17 -1.67676e-16)
(0 0.0588612 3.03679 9.24353e-17 1.12007e-16 -7.38989e-17)
(0 0.0571403 3.05157 1.43335e-16 9.87758e-17 -6.08165e-17)
(-1.98205e-16 0.0554696 3.06599 8.78145e-17 1.1402e-16 -8.41645e-17)
(0 0.0538814 3.08005 8.8673e-17 9.39501e-17 -8.80424e-17)
(0 0.0523093 3.09376 1.14032e-16 1.2299e-16 -5.96021e-17)
(-3.89819e-16 0.0507852 3.10707 1.13122e-19 1.23993e-16 -5.15542e-17)
(0 0.0493734 3.12007 -5.17134e-17 8.21032e-17 -9.85617e-17)
(-1.92742e-16 0.0479758 3.13271 1.07114e-16 5.67134e-17 2.41238e-17)
(0 0.0465922 3.14505 1.721e-16 1.09025e-16 -4.14728e-17)
(0 0.0452543 3.15707 7.35095e-17 1.57622e-16 -1.55936e-16)
(0 0.0439613 3.16878 7.02198e-17 1.49634e-16 -6.95214e-17)
(-1.88481e-16 0.042744 3.18023 1.07807e-16 1.17251e-16 1.44059e-17)
(-3.7486e-16 0.0415391 3.19137 5.67559e-17 8.43025e-17 -1.2395e-17)
(0 0.0403461 3.20219 4.02763e-17 7.8162e-17 -5.42147e-17)
(0 0.0392268 3.21275 6.28439e-17 1.04105e-16 -2.56277e-17)
(-3.68626e-16 0.0381189 3.22309 3.58167e-17 1.36623e-16 -4.47568e-17)
(1.83286e-16 0.037022 3.23312 -4.27069e-17 1.58947e-16 -5.94331e-17)
(0 0.0359968 3.24288 -1.18916e-16 1.65257e-16 -1.22372e-16)
(0 0.034982 3.25241 -5.90738e-17 1.08795e-16 -3.34772e-17)
(0 0.0339473 3.26169 1.80243e-17 8.46929e-17 2.69879e-17)
(3.58466e-16 0.0329826 3.27078 -6.33859e-17 1.26463e-16 -7.66335e-18)
(0 0.0320575 3.27961 -1.43779e-16 1.01184e-16 -5.60219e-17)
(3.54481e-16 0.0311121 3.28822 -5.61842e-17 -1.47286e-17 -5.49229e-18)
(0 0.0302054 3.29656 7.57113e-17 -2.1305e-17 -4.95314e-17)
(3.5054e-16 0.0293372 3.30477 2.37068e-17 1.10182e-16 -6.34946e-17)
(3.48586e-16 0.0284777 3.31267 -7.04453e-17 1.24067e-16 -6.39007e-17)
(0 0.0276269 3.32039 1.06465e-17 8.77336e-17 -8.04232e-17)
(3.4471e-16 0.0267846 3.32793 7.5482e-17 1.11032e-16 -1.17338e-16)
(-3.42789e-16 0.0259794 3.33529 9.11063e-17 9.96405e-17 -1.67643e-16)
(0 0.0252107 3.34239 1.14497e-16 1.09008e-16 -8.14355e-17)
(0 0.0244216 3.34931 7.03668e-17 1.67106e-16 -2.02965e-16)
(0 0.0236405 3.35606 7.09791e-17 1.61919e-16 -1.38592e-16)
(-3.35209e-16 0.022923 3.36262 9.04528e-17 1.12915e-16 4.07589e-18)
(-3.33341e-16 0.0221853 3.36897 4.55563e-17 8.31377e-17 -6.8387e-18)
(0 0.0214548 3.37513 -6.37724e-17 1.24777e-16 -6.29456e-17)
(0 0.0207594 3.38112 -1.7717e-16 1.5498e-16 -7.08022e-17)