/*--------------------------------*- C++ -*----------------------------------*\
| =========                 |                                                 |
| \\      /  F ield         | OpenFOAM: The Open Source CFD Toolbox           |
|  \\    /   O peration     | Version:  2306                                  |
|   \\  /    A nd           | Website:  www.openfoam.com                      |
|    \\/     M anipulation  |                                                 |
\*---------------------------------------------------------------------------*/
// * * * * * * * * * * * * * * * * * * * * * * * * * * * * * * * * * * * * * //
FoamFile
{
    version         2;
    format          ascii;
    class           volVectorField;
    location        "97.86";
    object          Udns;
}

dimensions      [ 0 1 -1 0 0 0 0 ];

internalField   nonuniform List<vector> 
15625
(
(0.000380133 -3.58787e-11 -3.58787e-11)
(0.00104038 4.49931e-09 -3.81809e-09)
(0.00163793 5.66369e-08 -2.60763e-08)
(0.00219931 2.51823e-07 -7.65501e-08)
(0.00273553 7.07047e-07 -1.56826e-07)
(0.00325251 1.54339e-06 -2.65107e-07)
(0.00375395 2.86987e-06 -3.97353e-07)
(0.0042424 4.7844e-06 -5.50119e-07)
(0.00471962 7.37732e-06 -7.21805e-07)
(0.00518686 1.07348e-05 -9.12183e-07)
(0.0056451 1.49466e-05 -1.12219e-06)
(0.00609493 2.01139e-05 -1.35457e-06)
(0.00653675 2.63465e-05 -1.61179e-06)
(0.00697077 3.37654e-05 -1.89513e-06)
(0.00739707 4.24948e-05 -2.20489e-06)
(0.00781548 5.26601e-05 -2.53966e-06)
(0.00822578 6.43808e-05 -2.8968e-06)
(0.0086276 7.77497e-05 -3.27053e-06)
(0.00902052 9.28503e-05 -3.65415e-06)
(0.00940402 0.00010972 -4.04008e-06)
(0.00977753 0.000128371 -4.42016e-06)
(0.0101405 0.000148784 -4.78626e-06)
(0.0104923 0.000170886 -5.13051e-06)
(0.0108325 0.000194589 -5.44509e-06)
(0.0111606 0.000219763 -5.72441e-06)
(0.011476 0.000246249 -5.9639e-06)
(0.0117784 0.000273878 -6.15966e-06)
(0.0120676 0.000302456 -6.31e-06)
(0.0123432 0.000331778 -6.41366e-06)
(0.0126052 0.000361639 -6.47056e-06)
(0.0128535 0.000391834 -6.48246e-06)
(0.013088 0.000422156 -6.4514e-06)
(0.0133088 0.000452409 -6.37985e-06)
(0.0135161 0.000482413 -6.27085e-06)
(0.0137101 0.000511986 -6.12754e-06)
(0.013891 0.000540967 -5.95355e-06)
(0.0140591 0.000569222 -5.75288e-06)
(0.0142148 0.000596613 -5.52967e-06)
(0.0143584 0.000623024 -5.28736e-06)
(0.0144902 0.000648366 -5.02874e-06)
(0.0146107 0.000672544 -4.75666e-06)
(0.0147204 0.000695484 -4.47394e-06)
(0.0148196 0.000717134 -4.18329e-06)
(0.0149087 0.00073744 -3.88755e-06)
(0.0149883 0.000756362 -3.589e-06)
(0.0150588 0.000773875 -3.28899e-06)
(0.0151205 0.000789959 -2.98879e-06)
(0.015174 0.000804597 -2.68983e-06)
(0.0152197 0.000817788 -2.39392e-06)
(0.0152579 0.000829537 -2.10297e-06)
(0.0152892 0.000839849 -1.81884e-06)
(0.0153138 0.000848746 -1.54245e-06)
(0.0153323 0.000856257 -1.27439e-06)
(0.0153449 0.000862414 -1.01524e-06)
(0.015352 0.000867246 -7.65223e-07)
(0.015354 0.000870786 -5.24283e-07)
(0.0153512 0.000873066 -2.92335e-07)
(0.015344 0.000874122 -6.93262e-08)
(0.0153326 0.000873988 1.44722e-07)
(0.0153175 0.0008727 3.4978e-07)
(0.0152991 0.000870294 5.45857e-07)
(0.0152775 0.000866807 7.33176e-07)
(0.0152533 0.000862274 9.12051e-07)
(0.0152267 0.00085673 1.08282e-06)
(0.0151982 0.000850209 1.24606e-06)
(0.0151679 0.000842736 1.40265e-06)
(0.0151364 0.000834338 1.55346e-06)
(0.0151038 0.000825041 1.69926e-06)
(0.0150705 0.000814862 1.84036e-06)
(0.0150366 0.000803814 1.97698e-06)
(0.0150026 0.000791916 2.10923e-06)
(0.0149685 0.000779192 2.23618e-06)
(0.0149347 0.000765669 2.35624e-06)
(0.0149013 0.000751378 2.46772e-06)
(0.0148687 0.000736363 2.56915e-06)
(0.0148371 0.000720688 2.65935e-06)
(0.0148067 0.000704423 2.73714e-06)
(0.0147779 0.000687639 2.80156e-06)
(0.0147507 0.000670403 2.85294e-06)
(0.0147252 0.000652783 2.89208e-06)
(0.0147017 0.00063485 2.91979e-06)
(0.0146803 0.000616677 2.93629e-06)
(0.0146609 0.000598337 2.94121e-06)
(0.0146438 0.000579909 2.93414e-06)
(0.014629 0.00056146 2.9157e-06)
(0.0146165 0.000543029 2.88956e-06)
(0.0146061 0.000524651 2.86009e-06)
(0.014598 0.000506357 2.83133e-06)
(0.0145922 0.000488161 2.80303e-06)
(0.0145886 0.000470066 2.7725e-06)
(0.0145873 0.000452076 2.73696e-06)
(0.0145884 0.000434216 2.69483e-06)
(0.0145917 0.000416543 2.64631e-06)
(0.0145973 0.000399119 2.59173e-06)
(0.0146049 0.000381998 2.53164e-06)
(0.0146147 0.000365201 2.4673e-06)
(0.0146263 0.000348743 2.40016e-06)
(0.0146398 0.000332639 2.33169e-06)
(0.014655 0.000316901 2.26316e-06)
(0.0146717 0.000301539 2.19572e-06)
(0.0146897 0.000286563 2.13057e-06)
(0.0147088 0.000271957 2.06915e-06)
(0.0147288 0.000257673 2.01316e-06)
(0.0147496 0.00024366 1.96436e-06)
(0.0147709 0.000229874 1.92328e-06)
(0.0147926 0.000216294 1.88744e-06)
(0.0148147 0.000202902 1.85386e-06)
(0.0148372 0.000189682 1.81996e-06)
(0.0148597 0.000176636 1.78532e-06)
(0.0148821 0.000163769 1.75013e-06)
(0.0149044 0.000151087 1.71443e-06)
(0.0149262 0.000138605 1.67694e-06)
(0.0149476 0.00012634 1.63573e-06)
(0.0149685 0.000114313 1.58895e-06)
(0.0149886 0.000102585 1.53654e-06)
(0.0150076 9.12466e-05 1.47969e-06)
(0.0150251 8.03836e-05 1.41972e-06)
(0.015041 6.99309e-05 1.35866e-06)
(0.0150552 5.96823e-05 1.29918e-06)
(0.0150674 4.94376e-05 1.24408e-06)
(0.0150776 3.94443e-05 1.19569e-06)
(0.0150858 3.0438e-05 1.15585e-06)
(0.015092 2.3202e-05 1.12646e-06)
(0.0150961 1.85458e-05 1.10943e-06)
(0.015098 1.73054e-05 1.10678e-06)
(0.00104038 -3.81809e-09 4.49931e-09)
(0.00295957 -2.24418e-08 -2.24418e-08)
(0.00473421 6.18484e-08 -2.01546e-07)
(0.0064114 4.94595e-07 -6.05698e-07)
(0.00801729 1.57948e-06 -1.25478e-06)
(0.00956736 3.63784e-06 -2.14018e-06)
(0.0110719 6.9783e-06 -3.23839e-06)
(0.0125381 1.18942e-05 -4.52832e-06)
(0.013971 1.86682e-05 -5.9987e-06)
(0.0153743 2.75793e-05 -7.64904e-06)
(0.0167507 3.89163e-05 -9.48647e-06)
(0.018102 5.29905e-05 -1.15283e-05)
(0.0194294 7.01295e-05 -1.3789e-05)
(0.0207334 9.06784e-05 -1.62748e-05)
(0.0220144 0.000114982 -1.89833e-05)
(0.0232717 0.000143375 -2.18969e-05)
(0.0245046 0.000176169 -2.49893e-05)
(0.0257121 0.000213596 -2.82109e-05)
(0.0268929 0.000255862 -3.15054e-05)
(0.0280453 0.000303048 -3.48094e-05)
(0.0291678 0.000355166 -3.80549e-05)
(0.0302584 0.000412147 -4.11749e-05)
(0.0313157 0.00047378 -4.41059e-05)
(0.0323378 0.000539822 -4.6785e-05)
(0.0333235 0.000609912 -4.91666e-05)
(0.0342712 0.000683626 -5.12128e-05)
(0.0351798 0.000760505 -5.28915e-05)
(0.0360484 0.000840029 -5.41891e-05)
(0.0368764 0.000921647 -5.50952e-05)
(0.0376633 0.00100481 -5.56089e-05)
(0.038409 0.00108897 -5.5744e-05)
(0.0391133 0.00117356 -5.55161e-05)
(0.0397765 0.00125806 -5.49452e-05)
(0.0403991 0.00134197 -5.40567e-05)
(0.0409816 0.0014248 -5.28767e-05)
(0.0415249 0.00150611 -5.14347e-05)
(0.0420297 0.00158553 -4.9763e-05)
(0.0424971 0.00166266 -4.78948e-05)
(0.0429281 0.00173719 -4.58586e-05)
(0.0433239 0.00180886 -4.36787e-05)
(0.0436857 0.00187739 -4.13799e-05)
(0.0440148 0.00194258 -3.89861e-05)
(0.0443125 0.00200426 -3.65201e-05)
(0.0445801 0.00206228 -3.4005e-05)
(0.0448189 0.00211652 -3.14605e-05)
(0.0450303 0.00216689 -2.88991e-05)
(0.0452155 0.00221334 -2.63327e-05)
(0.045376 0.00225579 -2.37743e-05)
(0.045513 0.00229425 -2.12386e-05)
(0.0456277 0.00232872 -1.87412e-05)
(0.0457214 0.00235919 -1.62971e-05)
(0.0457952 0.00238573 -1.3914e-05)
(0.0458504 0.00240839 -1.15972e-05)
(0.0458881 0.00242724 -9.35177e-06)
(0.0459093 0.00244236 -7.18052e-06)
(0.0459151 0.00245383 -5.08385e-06)
(0.0459064 0.00246173 -3.06211e-06)
(0.0458845 0.00246614 -1.11555e-06)
(0.0458502 0.00246717 7.55785e-07)
(0.0458046 0.0024649 2.55188e-06)
(0.0457489 0.00245943 4.27299e-06)
(0.045684 0.00245085 5.92084e-06)
(0.045611 0.00243926 7.49781e-06)
(0.045531 0.00242474 9.00639e-06)
(0.0454449 0.00240739 1.04506e-05)
(0.0453539 0.00238728 1.1836e-05)
(0.0452588 0.0023645 1.31685e-05)
(0.0451607 0.00233911 1.44533e-05)
(0.0450604 0.00231118 1.56928e-05)
(0.0449587 0.00228077 1.68893e-05)
(0.0448561 0.00224792 1.80442e-05)
(0.0447536 0.00221273 1.91503e-05)
(0.0446518 0.00217527 2.01951e-05)
(0.0445515 0.00213564 2.11657e-05)
(0.0444534 0.00209396 2.20501e-05)
(0.0443582 0.00205039 2.28392e-05)
(0.0442668 0.00200513 2.35235e-05)
(0.0441799 0.00195837 2.4095e-05)
(0.044098 0.0019103 2.45558e-05)
(0.0440214 0.0018611 2.49112e-05)
(0.0439507 0.00181098 2.51668e-05)
(0.043886 0.00176013 2.53253e-05)
(0.0438277 0.00170875 2.53863e-05)
(0.0437762 0.00165705 2.53491e-05)
(0.0437314 0.0016052 2.52203e-05)
(0.0436935 0.00155333 2.50267e-05)
(0.0436623 0.00150151 2.48001e-05)
(0.0436378 0.00144986 2.45697e-05)
(0.04362 0.00139842 2.43346e-05)
(0.043609 0.00134721 2.40764e-05)
(0.043605 0.00129629 2.37764e-05)
(0.043608 0.00124572 2.34237e-05)
(0.0436178 0.00119563 2.3019e-05)
(0.0436343 0.00114618 2.25642e-05)
(0.0436571 0.0010975 2.20628e-05)
(0.043686 0.00104966 2.15244e-05)
(0.0437209 0.00100272 2.09605e-05)
(0.0437612 0.000956736 2.03826e-05)
(0.0438067 0.000911739 1.98019e-05)
(0.0438567 0.000867754 1.92291e-05)
(0.0439106 0.0008248 1.86757e-05)
(0.0439678 0.000782839 1.8153e-05)
(0.0440278 0.000741762 1.7673e-05)
(0.04409 0.000701455 1.72477e-05)
(0.0441538 0.000661818 1.68806e-05)
(0.044219 0.000622799 1.65538e-05)
(0.0442853 0.000584349 1.62457e-05)
(0.0443525 0.000546431 1.59376e-05)
(0.0444201 0.000509049 1.56254e-05)
(0.0444874 0.000472221 1.53092e-05)
(0.044554 0.000435965 1.49882e-05)
(0.0446196 0.000400308 1.4653e-05)
(0.0446838 0.000365278 1.42899e-05)
(0.0447464 0.000330914 1.38859e-05)
(0.0448067 0.000297373 1.34401e-05)
(0.0448636 0.000264902 1.29609e-05)
(0.0449163 0.000233732 1.24569e-05)
(0.0449639 0.000203659 1.19445e-05)
(0.0450063 0.000174074 1.14466e-05)
(0.0450429 0.000144382 1.09872e-05)
(0.0450735 0.000115309 1.05852e-05)
(0.0450981 8.90144e-05 1.02541e-05)
(0.0451166 6.78005e-05 1.00079e-05)
(0.0451288 5.40443e-05 9.86062e-06)
(0.0451346 5.02021e-05 9.827e-06)
(0.00163793 -2.60763e-08 5.66369e-08)
(0.00473421 -2.01546e-07 6.18484e-08)
(0.00764691 -3.38982e-07 -3.38982e-07)
(0.0104207 -5.65678e-08 -1.31871e-06)
(0.0130864 1.10684e-06 -2.93352e-06)
(0.0156648 3.64249e-06 -5.17273e-06)
(0.0181705 8.03908e-06 -7.99457e-06)
(0.0206142 1.47788e-05 -1.13601e-05)
(0.0230037 2.4341e-05 -1.52476e-05)
(0.0253446 3.72098e-05 -1.96596e-05)
(0.0276413 5.3885e-05 -2.46129e-05)
(0.0298965 7.48933e-05 -3.01413e-05)
(0.0321122 0.000100777 -3.62696e-05)
(0.0342891 0.000132087 -4.30008e-05)
(0.0364275 0.000169364 -5.0316e-05)
(0.0385266 0.000213105 -5.81558e-05)
(0.040585 0.000263773 -6.64393e-05)
(0.0426008 0.000321689 -7.50338e-05)
(0.0445719 0.000387133 -8.37905e-05)
(0.0464956 0.000460193 -9.25446e-05)
(0.048369 0.000540855 -0.00010112)
(0.0501893 0.000628983 -0.000109347)
(0.0519536 0.000724239 -0.000117066)
(0.0536592 0.000826239 -0.00012412)
(0.0553037 0.000934432 -0.000130395)
(0.0568847 0.00104817 -0.000135795)
(0.0584003 0.00116678 -0.000140239)
(0.0598491 0.00128946 -0.000143694)
(0.06123 0.00141541 -0.000146134)
(0.0625422 0.0015438 -0.000147556)
(0.0637854 0.00167382 -0.000147995)
(0.0649597 0.00180463 -0.000147487)
(0.0660654 0.00193543 -0.000146085)
(0.0671032 0.00206549 -0.000143852)
(0.0680743 0.00219406 -0.000140855)
(0.0689797 0.00232048 -0.00013717)
(0.0698211 0.00244417 -0.000132875)
(0.0706 0.00256454 -0.000128054)
(0.0713182 0.00268109 -0.00012278)
(0.0719777 0.00279342 -0.000117117)
(0.0725806 0.00290109 -0.000111131)
(0.0731289 0.00300377 -0.000104883)
(0.0736248 0.00310121 -9.8432e-05)
(0.0740705 0.00319313 -9.18389e-05)
(0.0744683 0.00327935 -8.51545e-05)
(0.0748202 0.00335972 -7.84133e-05)
(0.0751286 0.00343412 -7.1649e-05)
(0.0753957 0.00350244 -6.48968e-05)
(0.0756235 0.00356466 -5.81947e-05)
(0.0758142 0.00362076 -5.1582e-05)
(0.0759699 0.00367074 -4.50964e-05)
(0.0760925 0.00371465 -3.87587e-05)
(0.0761839 0.00375255 -3.25828e-05)
(0.0762461 0.00378455 -2.65826e-05)
(0.0762808 0.00381073 -2.07668e-05)
(0.0762897 0.00383119 -1.51386e-05)
(0.0762746 0.00384605 -9.70148e-06)
(0.0762372 0.00385543 -4.45776e-06)
(0.0761793 0.00385946 5.92216e-07)
(0.0761025 0.00385827 5.44842e-06)
(0.0760087 0.00385201 1.01115e-05)
(0.0758997 0.0038408 1.45855e-05)
(0.0757771 0.00382477 1.8876e-05)
(0.0756427 0.00380406 2.29889e-05)
(0.0754983 0.00377879 2.69321e-05)
(0.0753456 0.00374909 3.07158e-05)
(0.0751862 0.0037151 3.43504e-05)
(0.0750218 0.00367693 3.78458e-05)
(0.0748537 0.0036347 4.12092e-05)
(0.0746831 0.00358852 4.44473e-05)
(0.0745114 0.00353848 4.75651e-05)
(0.0743396 0.00348473 5.05456e-05)
(0.0741691 0.00342741 5.33585e-05)
(0.0740009 0.00336665 5.5972e-05)
(0.0738364 0.00330266 5.83575e-05)
(0.0736768 0.00323569 6.04921e-05)
(0.0735234 0.00316602 6.23526e-05)
(0.0733775 0.00309393 6.39197e-05)
(0.0732398 0.00301972 6.51966e-05)
(0.0731111 0.00294368 6.61946e-05)
(0.072992 0.00286612 6.69256e-05)
(0.0728831 0.00278732 6.73978e-05)
(0.0727848 0.0027076 6.76154e-05)
(0.0726975 0.00262724 6.75828e-05)
(0.0726217 0.00254652 6.73189e-05)
(0.0725573 0.00246562 6.68854e-05)
(0.072504 0.00238468 6.63539e-05)
(0.0724618 0.00230387 6.57909e-05)
(0.0724307 0.00222328 6.51963e-05)
(0.0724111 0.00214299 6.45315e-05)
(0.0724032 0.00206308 6.3757e-05)
(0.0724069 0.00198367 6.28497e-05)
(0.072422 0.00190495 6.18108e-05)
(0.0724481 0.00182712 6.06436e-05)
(0.0724848 0.00175036 5.93557e-05)
(0.0725317 0.0016748 5.79696e-05)
(0.0725884 0.00160054 5.65116e-05)
(0.0726544 0.00152769 5.50095e-05)
(0.072729 0.00145631 5.34928e-05)
(0.0728111 0.00138642 5.19925e-05)
(0.0728998 0.00131807 5.05406e-05)
(0.0729942 0.0012512 4.91662e-05)
(0.0730932 0.00118567 4.78945e-05)
(0.0731958 0.00112136 4.67513e-05)
(0.0733012 0.00105812 4.5743e-05)
(0.0734089 0.000995895 4.48294e-05)
(0.0735185 0.000934625 4.39623e-05)
(0.0736296 0.000874257 4.30993e-05)
(0.0737413 0.000814803 4.22301e-05)
(0.0738528 0.000756289 4.13532e-05)
(0.0739631 0.000698739 4.04647e-05)
(0.0740717 0.000642175 3.95433e-05)
(0.0741781 0.000586614 3.85586e-05)
(0.0742817 0.000532087 3.74816e-05)
(0.0743815 0.000478819 3.63103e-05)
(0.0744758 0.000427172 3.50623e-05)
(0.0745628 0.000377488 3.37574e-05)
(0.0746415 0.000329416 3.24349e-05)
(0.0747113 0.00028196 3.11533e-05)
(0.0747717 0.000234152 2.99726e-05)
(0.0748223 0.000187174 2.89399e-05)
(0.0748628 0.000144545 2.80873e-05)
(0.0748933 0.000110016 2.74473e-05)
(0.0749134 8.74602e-05 2.70534e-05)
(0.074923 8.08815e-05 2.69402e-05)
(0.00219931 -7.65501e-08 2.51823e-07)
(0.0064114 -6.05698e-07 4.94595e-07)
(0.0104207 -1.31871e-06 -5.65678e-08)
(0.014265 -1.68911e-06 -1.68911e-06)
(0.0179743 -1.10711e-06 -4.50366e-06)
(0.0215708 1.07474e-06 -8.49553e-06)
(0.0250712 5.51262e-06 -1.36133e-05)
(0.0284886 1.28696e-05 -1.98085e-05)
(0.0318323 2.38193e-05 -2.70568e-05)
(0.0351096 3.90525e-05 -3.53682e-05)
(0.0383261 5.92822e-05 -4.47715e-05)
(0.0414851 8.52487e-05 -5.53111e-05)
(0.044589 0.000117701 -6.70121e-05)
(0.0476388 0.000157379 -7.9856e-05)
(0.0506346 0.000204996 -9.37841e-05)
(0.0535751 0.00026118 -0.000108663)
(0.0564584 0.000326506 -0.000124325)
(0.0592817 0.000401353 -0.000140514)
(0.0620419 0.000486034 -0.000156952)
(0.0647352 0.000580621 -0.000173334)
(0.0673577 0.000685054 -0.000189339)
(0.0699052 0.000799118 -0.000204659)
(0.072374 0.000922358 -0.000219012)
(0.07476 0.00105426 -0.000232122)
(0.0770601 0.0011941 -0.000243786)
(0.079271 0.00134108 -0.000253836)
(0.08139 0.0014943 -0.000262128)
(0.0834153 0.00165281 -0.000268606)
(0.0853453 0.00181556 -0.000273226)
(0.0871791 0.00198154 -0.000275986)
(0.0889164 0.00214972 -0.000276944)
(0.0905571 0.00231907 -0.000276169)
(0.0921017 0.00248859 -0.00027375)
(0.0935516 0.00265736 -0.000269802)
(0.094908 0.00282444 -0.000264446)
(0.0961727 0.002989 -0.000257812)
(0.0973478 0.00315029 -0.000250045)
(0.0984356 0.00330757 -0.000241289)
(0.0994386 0.00346019 -0.000231678)
(0.100359 0.00360761 -0.000221327)
(0.101201 0.00374929 -0.000210357)
(0.101967 0.00388477 -0.000198883)
(0.102659 0.0040137 -0.00018701)
(0.103281 0.00413573 -0.000174849)
(0.103836 0.00425058 -0.000162493)
(0.104327 0.00435806 -0.000150008)
(0.104757 0.00445797 -0.00013746)
(0.10513 0.00455017 -0.000124913)
(0.105447 0.00463459 -0.000112438)
(0.105713 0.00471118 -0.000100107)
(0.105929 0.00477992 -8.79879e-05)
(0.106099 0.00484084 -7.6119e-05)
(0.106226 0.00489401 -6.45258e-05)
(0.106312 0.00493951 -5.32342e-05)
(0.106359 0.00497742 -4.22622e-05)
(0.10637 0.00500787 -3.16206e-05)
(0.106347 0.00503097 -2.13199e-05)
(0.106293 0.00504685 -1.13678e-05)
(0.10621 0.00505565 -1.76543e-06)
(0.106101 0.00505756 7.48693e-06)
(0.105968 0.00505271 1.63901e-05)
(0.105813 0.00504128 2.49504e-05)
(0.10564 0.00502339 3.31764e-05)
(0.10545 0.00499923 4.10772e-05)
(0.105246 0.00496894 4.86627e-05)
(0.10503 0.00493269 5.59439e-05)
(0.104805 0.00489066 6.29324e-05)
(0.104573 0.00484302 6.96403e-05)
(0.104336 0.00478993 7.60803e-05)
(0.104096 0.00473154 8.2266e-05)
(0.103853 0.00466804 8.82076e-05)
(0.103611 0.0045996 9.38774e-05)
(0.10337 0.00452641 9.92242e-05)
(0.103133 0.00444868 0.000104195)
(0.102901 0.00436665 0.000108741)
(0.102675 0.00428066 0.000112822)
(0.102458 0.00419105 0.000116398)
(0.102251 0.00409817 0.000119434)
(0.102056 0.0040024 0.000121933)
(0.101873 0.00390411 0.000123913)
(0.101703 0.00380369 0.000125392)
(0.101547 0.00370153 0.000126387)
(0.101407 0.00359798 0.000126912)
(0.101281 0.00349343 0.000126982)
(0.101172 0.00338821 0.000126636)
(0.101078 0.00328257 0.000125973)
(0.100999 0.0031767 0.000125109)
(0.100937 0.00307083 0.000124153)
(0.100889 0.0029651 0.000123108)
(0.100858 0.00285964 0.000121918)
(0.100843 0.00275458 0.000120522)
(0.100844 0.00265009 0.000118888)
(0.100861 0.00254638 0.000117016)
(0.100894 0.0024437 0.000114913)
(0.100941 0.00234225 0.000112589)
(0.101003 0.00224222 0.00011008)
(0.101078 0.00214374 0.00010743)
(0.101166 0.00204697 0.000104684)
(0.101266 0.00195201 0.000101895)
(0.101377 0.0018589 9.91269e-05)
(0.101498 0.00176769 9.64408e-05)
(0.101626 0.00167835 9.38895e-05)
(0.101761 0.00159073 9.15117e-05)
(0.101901 0.00150468 8.93467e-05)
(0.102045 0.00142008 8.7403e-05)
(0.102192 0.00133685 8.56158e-05)
(0.102343 0.00125495 8.39073e-05)
(0.102495 0.00117433 8.22094e-05)
(0.102648 0.00109499 8.05052e-05)
(0.102801 0.00101698 7.87922e-05)
(0.102953 0.000940302 7.7064e-05)
(0.103102 0.000864973 7.5286e-05)
(0.103249 0.000790983 7.34085e-05)
(0.103391 0.000718348 7.13844e-05)
(0.103528 0.000647327 6.92114e-05)
(0.103658 0.000578358 6.69198e-05)
(0.103777 0.000511851 6.45433e-05)
(0.103885 0.000447304 6.21484e-05)
(0.10398 0.000383365 5.98326e-05)
(0.104063 0.000318721 5.76969e-05)
(0.104132 0.000254988 5.58216e-05)
(0.104187 0.000196978 5.42641e-05)
(0.104229 0.000149811 5.30828e-05)
(0.104256 0.000118779 5.23376e-05)
(0.10427 0.000109351 5.20905e-05)
(0.00273553 -1.56826e-07 7.07047e-07)
(0.00801729 -1.25478e-06 1.57948e-06)
(0.0130864 -2.93352e-06 1.10684e-06)
(0.0179743 -4.50366e-06 -1.10711e-06)
(0.0227082 -5.20367e-06 -5.20367e-06)
(0.0273093 -4.23347e-06 -1.11893e-05)
(0.031795 -7.78013e-07 -1.90112e-05)
(0.0361792 5.99834e-06 -2.86225e-05)
(0.040472 1.6958e-05 -4.00085e-05)
(0.0446816 3.29923e-05 -5.31925e-05)
(0.0488143 5.50211e-05 -6.82148e-05)
(0.0528738 8.39911e-05 -8.5124e-05)
(0.0568627 0.000120847 -0.000103931)
(0.0607819 0.000166505 -0.00012457)
(0.0646313 0.000221826 -0.000146912)
(0.0684088 0.000287548 -0.000170716)
(0.072112 0.00036433 -0.000195686)
(0.075737 0.000452577 -0.000221412)
(0.07928 0.000552614 -0.000247444)
(0.082736 0.000664472 -0.000273308)
(0.0860998 0.00078803 -0.000298511)
(0.0893663 0.000922992 -0.000322582)
(0.0925306 0.00106879 -0.0003451)
(0.095588 0.00122479 -0.000365649)
(0.0985341 0.00139014 -0.000383931)
(0.101365 0.00156389 -0.000399698)
(0.104078 0.00174502 -0.00041274)
(0.10667 0.0019324 -0.000422974)
(0.109139 0.00212485 -0.000430341)
(0.111485 0.00232121 -0.000434837)
(0.113707 0.0025203 -0.000436555)
(0.115805 0.00272094 -0.000435597)
(0.11778 0.002922 -0.0004321)
(0.119634 0.00312243 -0.000426236)
(0.121368 0.00332114 -0.000418186)
(0.122985 0.00351718 -0.000408147)
(0.124487 0.00370969 -0.000396332)
(0.125877 0.0038978 -0.000382963)
(0.127159 0.00408076 -0.000368237)
(0.128336 0.00425792 -0.000352333)
(0.129412 0.00442863 -0.000335433)
(0.13039 0.00459235 -0.000317713)
(0.131275 0.00474864 -0.000299337)
(0.13207 0.00489707 -0.000280474)
(0.132779 0.00503728 -0.000261269)
(0.133406 0.00516902 -0.000241825)
(0.133955 0.00529203 -0.000222245)
(0.13443 0.00540611 -0.000202633)
(0.134834 0.00551116 -0.000183097)
(0.135172 0.00560708 -0.000163747)
(0.135448 0.0056938 -0.00014469)
(0.135664 0.00577134 -0.000125984)
(0.135824 0.00583974 -0.00010767)
(0.135931 0.00589904 -8.97874e-05)
(0.135989 0.00594933 -7.2367e-05)
(0.136 0.00599069 -5.54313e-05)
(0.135968 0.00602324 -3.90028e-05)
(0.135896 0.0060471 -2.30985e-05)
(0.135787 0.00606242 -7.72165e-06)
(0.135643 0.00606936 7.12598e-06)
(0.13547 0.0060681 2.14441e-05)
(0.135268 0.00605879 3.52396e-05)
(0.135042 0.0060416 4.85227e-05)
(0.134795 0.00601669 6.13039e-05)
(0.13453 0.00598424 7.35921e-05)
(0.13425 0.00594446 8.53945e-05)
(0.133958 0.00589755 9.67185e-05)
(0.133656 0.00584371 0.000107574)
(0.133349 0.00578316 0.000117979)
(0.133036 0.00571611 0.000127953)
(0.132722 0.00564279 0.000137509)
(0.132407 0.00556343 0.000146611)
(0.132095 0.00547829 0.000155189)
(0.131786 0.00538761 0.000163169)
(0.131484 0.0052917 0.000170484)
(0.13119 0.00519093 0.000177072)
(0.130906 0.0050857 0.000182875)
(0.130636 0.0049764 0.00018784)
(0.130379 0.00486347 0.000191969)
(0.130139 0.00474735 0.000195287)
(0.129915 0.00462849 0.000197818)
(0.129709 0.00450734 0.000199588)
(0.129522 0.00438431 0.000200626)
(0.129354 0.00425983 0.000200963)
(0.129206 0.0041343 0.000200657)
(0.129078 0.00400801 0.000199849)
(0.12897 0.00388122 0.0001987)
(0.128881 0.00375422 0.00019736)
(0.128812 0.00362719 0.000195838)
(0.128764 0.00350033 0.000194064)
(0.128737 0.0033738 0.000191966)
(0.12873 0.0032478 0.000189502)
(0.128744 0.00312259 0.000186676)
(0.128777 0.00299842 0.000183494)
(0.128828 0.00287554 0.000179972)
(0.128899 0.00275416 0.000176159)
(0.128986 0.00263445 0.000172113)
(0.129091 0.00251662 0.000167893)
(0.129211 0.00240078 0.000163584)
(0.129345 0.00228703 0.000159286)
(0.129491 0.00217545 0.0001551)
(0.129647 0.00206602 0.000151106)
(0.129813 0.00195861 0.000147356)
(0.129985 0.00185307 0.000143902)
(0.130162 0.00174929 0.000140754)
(0.130344 0.00164721 0.000137822)
(0.130529 0.0015468 0.000135001)
(0.130718 0.00144803 0.000132197)
(0.130908 0.00135091 0.000129389)
(0.131098 0.00125546 0.000126576)
(0.131287 0.0011617 0.000123754)
(0.131473 0.0010696 0.000120873)
(0.131655 0.000979144 0.000117863)
(0.131833 0.000890311 0.000114658)
(0.132003 0.000803374 0.000111258)
(0.132163 0.00071881 0.000107713)
(0.132311 0.000637057 0.000104075)
(0.132444 0.000557461 0.000100437)
(0.132562 0.000478346 9.69266e-05)
(0.132664 0.000398087 9.36758e-05)
(0.132749 0.000318719 9.07982e-05)
(0.132817 0.000246267 8.83863e-05)
(0.132869 0.000187143 8.65341e-05)
(0.132903 0.000147976 8.5339e-05)
(0.132919 0.000135613 8.49012e-05)
(0.00325251 -2.65107e-07 1.54339e-06)
(0.00956736 -2.14018e-06 3.63784e-06)
(0.0156648 -5.17273e-06 3.64249e-06)
(0.0215708 -8.49553e-06 1.07474e-06)
(0.0273093 -1.11893e-05 -4.23347e-06)
(0.0328998 -1.23012e-05 -1.23012e-05)
(0.0383588 -1.08602e-05 -2.30808e-05)
(0.0437002 -5.86253e-06 -3.65375e-05)
(0.0489341 3.73629e-06 -5.26803e-05)
(0.0540689 1.90218e-05 -7.15504e-05)
(0.0591112 4.11123e-05 -9.31977e-05)
(0.0640646 7.11496e-05 -0.000117664)
(0.0689315 0.00011026 -0.000144928)
(0.0737124 0.000159514 -0.000174846)
(0.0784069 0.000219903 -0.000207187)
(0.0830122 0.000292248 -0.000241562)
(0.0875248 0.00037727 -0.000277517)
(0.0919403 0.000475382 -0.000314446)
(0.0962535 0.000586899 -0.000351698)
(0.100459 0.000711809 -0.000388603)
(0.104549 0.00084992 -0.000424474)
(0.108519 0.00100086 -0.000458662)
(0.112363 0.00116395 -0.000490594)
(0.116075 0.00133846 -0.000519708)
(0.119651 0.00152344 -0.000545603)
(0.123085 0.00171782 -0.000567954)
(0.126373 0.00192046 -0.000586485)
(0.129515 0.00213015 -0.000601092)
(0.132507 0.0023456 -0.000611697)
(0.135348 0.00256553 -0.000618307)
(0.138038 0.00278871 -0.000621048)
(0.140578 0.00301383 -0.000620065)
(0.142969 0.0032397 -0.000615545)
(0.145212 0.00346516 -0.00060772)
(0.147311 0.00368905 -0.000596836)
(0.149267 0.00391033 -0.000583158)
(0.151084 0.00412806 -0.000566978)
(0.152766 0.00434129 -0.000548595)
(0.154317 0.00454918 -0.000528279)
(0.155741 0.00475101 -0.000506274)
(0.157042 0.00494605 -0.00048283)
(0.158225 0.00513369 -0.000458185)
(0.159295 0.00531341 -0.000432568)
(0.160256 0.00548471 -0.000406212)
(0.161113 0.00564717 -0.000379321)
(0.161871 0.00580046 -0.000352039)
(0.162534 0.00594428 -0.000324509)
(0.163107 0.00607835 -0.00029688)
(0.163595 0.00620251 -0.000269302)
(0.164002 0.00631665 -0.00024193)
(0.164333 0.00642062 -0.000214911)
(0.164592 0.0065144 -0.00018833)
(0.164783 0.00659798 -0.00016224)
(0.164909 0.00667138 -0.0001367)
(0.164975 0.00673464 -0.000111756)
(0.164985 0.00678782 -8.74469e-05)
(0.164942 0.006831 -6.38121e-05)
(0.16485 0.00686427 -4.08815e-05)
(0.164713 0.00688778 -1.8663e-05)
(0.164534 0.00690168 2.83808e-06)
(0.164318 0.00690611 2.36181e-05)
(0.164067 0.00690124 4.36821e-05)
(0.163788 0.00688723 6.30386e-05)
(0.163482 0.00686424 8.16967e-05)
(0.163154 0.00683247 9.96604e-05)
(0.162808 0.00679212 0.000116928)
(0.162447 0.00674342 0.000133498)
(0.162075 0.00668662 0.000149375)
(0.161695 0.00662195 0.000164574)
(0.161309 0.00654969 0.000179116)
(0.160921 0.00647013 0.000193017)
(0.160532 0.00638354 0.000206231)
(0.160146 0.00629022 0.000218675)
(0.159764 0.0061905 0.000230264)
(0.159389 0.0060847 0.000240913)
(0.159023 0.00597323 0.000250542)
(0.15867 0.00585652 0.000259066)
(0.158333 0.00573498 0.000266416)
(0.158011 0.0056091 0.000272593)
(0.157709 0.00547935 0.000277626)
(0.157426 0.00534624 0.000281547)
(0.157165 0.00521025 0.000284391)
(0.156926 0.00507184 0.000286205)
(0.15671 0.00493146 0.000287034)
(0.156518 0.00478957 0.000286959)
(0.156349 0.0046465 0.000286159)
(0.156204 0.00450259 0.000284838)
(0.156083 0.00435816 0.000283186)
(0.155987 0.00421349 0.000281223)
(0.155914 0.00406877 0.000278874)
(0.155867 0.00392424 0.000276059)
(0.155845 0.00378012 0.000272734)
(0.155847 0.0036367 0.000268905)
(0.155872 0.00349422 0.000264581)
(0.15592 0.00335298 0.000259785)
(0.155991 0.00321319 0.000254571)
(0.156083 0.00307509 0.000249008)
(0.156195 0.0029389 0.000243167)
(0.156326 0.00280478 0.000237165)
(0.156475 0.00267288 0.000231146)
(0.156638 0.00254332 0.000225254)
(0.156815 0.00241612 0.000219603)
(0.157003 0.00229117 0.000214257)
(0.157199 0.00216832 0.000209283)
(0.157402 0.00204749 0.000204694)
(0.15761 0.00192864 0.000200378)
(0.157823 0.00181176 0.000196197)
(0.158041 0.00169684 0.000192035)
(0.158261 0.00158389 0.000187872)
(0.158481 0.00147293 0.000183716)
(0.1587 0.00136396 0.000179565)
(0.158917 0.00125695 0.000175361)
(0.159129 0.00115183 0.000171012)
(0.159335 0.00104856 0.00016643)
(0.159533 0.000947391 0.000161625)
(0.159719 0.00084882 0.000156673)
(0.15989 0.000753287 0.000151656)
(0.160044 0.000659986 0.000146684)
(0.160179 0.000566947 0.000141895)
(0.160296 0.000472264 0.000137432)
(0.160394 0.000378366 0.000133437)
(0.160473 0.000292409 0.000130048)
(0.160531 0.000222013 0.000127411)
(0.16057 0.00017505 0.000125672)
(0.160589 0.000159655 0.000124984)
(0.00375395 -3.97353e-07 2.86987e-06)
(0.0110719 -3.23839e-06 6.9783e-06)
(0.0181705 -7.99457e-06 8.03908e-06)
(0.0250712 -1.36133e-05 5.51262e-06)
(0.031795 -1.90112e-05 -7.78013e-07)
(0.0383588 -2.30808e-05 -1.08602e-05)
(0.0447779 -2.46949e-05 -2.46949e-05)
(0.0510649 -2.26853e-05 -4.22691e-05)
(0.0572297 -1.58313e-05 -6.36261e-05)
(0.06328 -2.86127e-06 -8.8829e-05)
(0.0692221 1.75317e-05 -0.000117934)
(0.0750593 4.6671e-05 -0.000150964)
(0.0807933 8.58499e-05 -0.000187844)
(0.0864242 0.000136274 -0.000228319)
(0.0919507 0.000199049 -0.00027202)
(0.0973693 0.000275059 -0.000318379)
(0.102676 0.000365072 -0.00036674)
(0.107864 0.000469493 -0.000416275)
(0.112929 0.000588619 -0.0004661)
(0.117863 0.000722385 -0.000515331)
(0.122659 0.000870535 -0.000563071)
(0.12731 0.00103262 -0.00060848)
(0.13181 0.00120788 -0.000650831)
(0.136153 0.00139551 -0.000689411)
(0.140332 0.00159446 -0.000723722)
(0.144344 0.00180359 -0.000753363)
(0.148184 0.0020217 -0.000777999)
(0.15185 0.00224749 -0.000797506)
(0.155339 0.00247964 -0.0008118)
(0.158652 0.00271681 -0.000820894)
(0.161787 0.00295771 -0.000824958)
(0.164746 0.00320099 -0.000824183)
(0.167531 0.00344541 -0.000818809)
(0.170143 0.00368977 -0.00080913)
(0.172586 0.00393287 -0.000795454)
(0.174863 0.00417362 -0.00077812)
(0.176978 0.00441103 -0.000757497)
(0.178936 0.00464409 -0.000733964)
(0.18074 0.00487192 -0.000707865)
(0.182397 0.00509374 -0.000679508)
(0.183911 0.00530877 -0.000649211)
(0.185288 0.00551633 -0.000617279)
(0.186532 0.00571584 -0.000584006)
(0.18765 0.00590675 -0.00054969)
(0.188646 0.00608856 -0.000514595)
(0.189527 0.00626088 -0.00047891)
(0.190297 0.00642335 -0.000442826)
(0.190963 0.00657565 -0.000406535)
(0.191529 0.00671754 -0.000370231)
(0.192 0.00684885 -0.000334117)
(0.192383 0.00696938 -0.000298385)
(0.192681 0.00707905 -0.000263144)
(0.192898 0.00717781 -0.000228467)
(0.193041 0.00726561 -0.000194431)
(0.193113 0.00734243 -0.000161104)
(0.193119 0.0074083 -0.000128542)
(0.193063 0.00746325 -9.68066e-05)
(0.192949 0.00750734 -6.59431e-05)
(0.192782 0.00754067 -3.59684e-05)
(0.192567 0.00756337 -6.89526e-06)
(0.192307 0.00757556 2.12653e-05)
(0.192007 0.00757738 4.85131e-05)
(0.191672 0.00756898 7.48522e-05)
(0.191307 0.00755051 0.000100287)
(0.190916 0.00752217 0.000124812)
(0.190504 0.00748416 0.000148412)
(0.190074 0.00743672 0.000171071)
(0.18963 0.00738009 0.00019278)
(0.189176 0.00731457 0.000213549)
(0.188716 0.00724047 0.000233391)
(0.188252 0.00715811 0.000252316)
(0.187787 0.00706784 0.000270273)
(0.187325 0.00697 0.000287174)
(0.186867 0.00686495 0.000302929)
(0.186418 0.00675308 0.000317443)
(0.185978 0.00663479 0.000330615)