/*--------------------------------*- C++ -*----------------------------------*\
| =========                 |                                                 |
| \\      /  F ield         | OpenFOAM: The Open Source CFD Toolbox           |
|  \\    /   O peration     | Version:  4.x                                   |
|   \\  /    A nd           | Web:      www.OpenFOAM.org                      |
|    \\/     M anipulation  |                                                 |
\*---------------------------------------------------------------------------*/
FoamFile
{
    version     2.0;
    format      ascii;
    class       volVectorField;
    location    "97.86";
    object      Udns;
}
// * * * * * * * * * * * * * * * * * * * * * * * * * * * * * * * * * * * * * //

dimensions      [0 1 -1 0 0 0 0];

internalField   nonuniform List<vector> 
15625
(
(0.00038013257433556824 -3.587869904383867e-11 -3.587869904383762e-11)
(0.0010403784721964965 4.499313409091764e-09 -3.818087539789125e-09)
(0.0016379253899411425 5.663689180779905e-08 -2.6076318167741253e-08)
(0.0021993062351679613 2.51823097180126e-07 -7.655011174249334e-08)
(0.0027355343824929856 7.070472004994791e-07 -1.5682584301102047e-07)
(0.0032525055095603654 1.5433909024277473e-06 -2.6510714613756047e-07)
(0.0037539465824599698 2.869874411280949e-06 -3.973532898273281e-07)
(0.004242401998933253 4.78440205766053e-06 -5.501192576078679e-07)
(0.004719619488027651 7.377318350866167e-06 -7.218049235457463e-07)
(0.005186863992626687 1.0734802135478995e-05 -9.121830864909083e-07)
(0.005645104221488273 1.4946635292179883e-05 -1.1221887724981491e-06)
(0.006094925310337404 2.0113937832870182e-05 -1.354573239111298e-06)
(0.0065367452951977986 2.6346513607378973e-05 -1.6117942950761414e-06)
(0.006970767895601056 3.376539443252223e-05 -1.8951288102972052e-06)
(0.0073970657970764435 4.2494834429725725e-05 -2.204893580557284e-06)
(0.007815480726217534 5.266009633672678e-05 -2.539655430797436e-06)
(0.008225782788904828 6.438081224515585e-05 -2.89679518543293e-06)
(0.008627601429496624 7.774973593871655e-05 -3.270527325566194e-06)
(0.009020518433478392 9.285026134886412e-05 -3.6541467057756478e-06)
(0.009404019182420412 0.0001097197788897578 -4.0400758412200655e-06)
(0.009777531645970974 0.00012837114318651433 -4.420155133287108e-06)
(0.010140487785270855 0.00014878436899718462 -4.786261550783077e-06)
(0.010492336389517359 0.00017088590974014182 -5.130507408467067e-06)
(0.010832524719552325 0.00019458929871076533 -5.44509082001313e-06)
(0.011160568223287938 0.00021976272632838383 -5.724413426805002e-06)
(0.011476010861949612 0.0002462489242750142 -5.963901764331033e-06)
(0.01177844073214269 0.0002738782473821456 -6.159656121051292e-06)
(0.012067595207879445 0.00030245621336470296 -6.3099997079608255e-06)
(0.012343237635729754 0.0003317781578472612 -6.413658638063104e-06)
(0.01260520670397695 0.0003616385036249815 -6.470556584152398e-06)
(0.012853458032522384 0.00039183393315203894 -6.4824645429285435e-06)
(0.013087964197580484 0.00042215575433397523 -6.451396490960596e-06)
(0.013308792656278831 0.0004524090005957032 -6.379853148280541e-06)
(0.013516111149547405 0.0004824134736692911 -6.270847445502535e-06)
(0.013710104879275247 0.0005119856249235416 -6.127544201289586e-06)
(0.013891017699533973 0.0005409671624655929 -5.953548359336601e-06)
(0.014059148223058206 0.0005692221382294018 -5.752879546272498e-06)
(0.014214812503140583 0.0005966126005014651 -5.529670575906673e-06)
(0.0143583655983104 0.0006230243874009545 -5.287361239118447e-06)
(0.014490200892734855 0.0006483657488309785 -5.028740044798102e-06)
(0.014610729899583287 0.0006725438578188571 -4.756662408152393e-06)
(0.01472037201545428 0.0006954840229951695 -4.473935941738487e-06)
(0.01481955300425864 0.0007171336429020933 -4.183294095394212e-06)
(0.014908716035126151 0.0007374402863078624 -3.8875487959730745e-06)
(0.01498830494107661 0.000756361815722585 -3.5890025768600996e-06)
(0.015058751000307439 0.0007738751469357401 -3.2889908983206333e-06)
(0.015120500391526487 0.0007899588974868854 -2.9887916680856112e-06)
(0.015174000643123402 0.0008045967206092217 -2.6898328358162444e-06)
(0.015219665432815164 0.0008177883241858371 -2.393917490818789e-06)
(0.015257915397053373 0.0008295369988108399 -2.1029713297761754e-06)
(0.015289179043180508 0.0008398489416767619 -1.8188367080152619e-06)
(0.01531384215891689 0.0008487460160322532 -1.542451557871282e-06)
(0.01533228189027569 0.0008562573643793509 -1.274393571781655e-06)
(0.015344887974749805 0.0008624135781627519 -1.0152371930566705e-06)
(0.015352020423023586 0.0008672457529679693 -7.652227059372443e-07)
(0.015354013305341006 0.0008707856050835599 -5.242830986764741e-07)
(0.015351212439519278 0.0008730663539772483 -2.923350444988694e-07)
(0.015343967732433697 0.0008741222411317142 -6.932624615599482e-08)
(0.01533262268661789 0.0008739879311308969 1.4472175876988205e-07)
(0.015317531411631008 0.0008726995378083477 3.497800049354289e-07)
(0.015299055754566476 0.0008702942034309517 5.458569902199431e-07)
(0.015277537126213705 0.0008668070759167173 7.331761717090378e-07)
(0.01525331697169298 0.0008622735165449581 9.12050664243337e-07)
(0.015226748344758545 0.0008567301786329504 1.0828173988513154e-06)
(0.015198174659312419 0.0008502087552679093 1.246064397941953e-06)
(0.015167928623710568 0.0008427356186716642 1.4026455928629677e-06)
(0.015136353778688008 0.0008343380578346284 1.5534574216408531e-06)
(0.015103777341108068 0.0008250412478651648 1.6992635313402651e-06)
(0.015070453350229324 0.0008148615397329856 1.8403633195203044e-06)
(0.015036629080799639 0.0008038142932274159 1.976977169770544e-06)
(0.01500255858871038 0.0007919162962478384 2.1092308205310186e-06)
(0.01496848615659594 0.0007791915095419498 2.2361844331736545e-06)
(0.014934653442200919 0.0007656687173449433 2.3562351426190386e-06)
(0.014901310010304538 0.0007513781456302847 2.4677226194321076e-06)
(0.014868707681106026 0.000736362984153947 2.569150024592363e-06)
(0.014837096175359108 0.000720688202688533 2.6593459718184093e-06)
(0.014806732328312634 0.00070442317483011 2.7371398202957136e-06)
(0.014777864174469637 0.0006876387826645772 2.8015636503855534e-06)
(0.014750652692948956 0.0006704026741031876 2.8529448750899618e-06)
(0.014725230941814261 0.0006527829352321077 2.8920839118192376e-06)
(0.014701734724166598 0.0006348500678891403 2.9197876829808734e-06)
(0.014680277407515476 0.000616676587700314 2.936288386751805e-06)
(0.014660948550942278 0.0005983370570471718 2.941210682014545e-06)
(0.014643838769874185 0.0005799085885588301 2.9341435836858695e-06)
(0.014629013598502228 0.0005614598736758478 2.9156990642212813e-06)
(0.01461645931101043 0.0005430293323832276 2.889557582631264e-06)
(0.014606146122121346 0.0005246506956120265 2.860085492703395e-06)
(0.014598047525785874 0.0005063566597801295 2.8313266712054065e-06)
(0.014592183096555758 0.00048816083980720437 2.8030286269221868e-06)
(0.014588598475325636 0.00047006621608303205 2.772499303864742e-06)
(0.01458733937625127 0.00045207617788967287 2.7369589822548378e-06)
(0.014588408350656827 0.00043421615972724143 2.6948296567133923e-06)
(0.014591745352157317 0.00041654337884369395 2.646306333084479e-06)
(0.014597282853162977 0.00039911924391146776 2.5917297751650277e-06)
(0.014604947639024477 0.00038199777985336946 2.5316444865731244e-06)
(0.014614653773278585 0.00036520077987972936 2.46730383057174e-06)
(0.014626309536630662 0.00034874296481947483 2.400161154103205e-06)
(0.014639813981635608 0.000332639086898753 2.33169257732381e-06)
(0.01465501011488637 0.00031690106149350893 2.263159777585053e-06)
(0.014671706066688165 0.0003015392837468583 2.1957197177192494e-06)
(0.014689702961558389 0.0002865634960022056 2.1305729148773645e-06)
(0.014708805702993042 0.00027195741739314975 2.0691505936392776e-06)
(0.014728825118699749 0.00025767322331289003 2.0131558090373873e-06)
(0.01474956616106387 0.0002436596109701918 1.9643553425664005e-06)
(0.014770861336738559 0.0002298735243578734 1.9232759150217356e-06)
(0.014792617342145375 0.0002162938442383802 1.887441917376345e-06)
(0.014814748896080546 0.00020290197300733685 1.853863981112813e-06)
(0.01483715539629545 0.00018968245021223833 1.819960355214199e-06)
(0.014859678366043436 0.00017663623244345376 1.7853167290324847e-06)
(0.014882138892904614 0.0001637689337122228 1.7501276910742532e-06)
(0.014904360364301374 0.00015108719608320653 1.7144260589942093e-06)
(0.014926225126530333 0.00013860489437443388 1.6769372545556005e-06)
(0.014947642037866742 0.00012633961073330494 1.635731058625922e-06)
(0.014968507624535944 0.00011431253873249199 1.5889541445210841e-06)
(0.014988593105194669 0.00010258478273665589 1.5365383754037776e-06)
(0.015007577869554185 9.124656653707528e-05 1.4796914876790019e-06)
(0.015025135052729276 8.038359642236158e-05 1.4197236081762485e-06)
(0.0150410412505564 6.993089932110495e-05 1.3586555213052922e-06)
(0.015055169256101382 5.968232256257878e-05 1.2991788534037476e-06)
(0.015067393680650337 4.9437643823263746e-05 1.2440765760330303e-06)
(0.015077631677070474 3.9444294619588434e-05 1.1956860424602794e-06)
(0.015085847001759764 3.043799727241558e-05 1.1558527928094068e-06)
(0.015092005209549801 2.3202044846553306e-05 1.1264552027461908e-06)
(0.015096071407122678 1.854581962482667e-05 1.1094320312739016e-06)
(0.015098010247693838 1.7305402391058263e-05 1.106783814868633e-06)
(0.0010403784721964965 -3.818087539789135e-09 4.499313409091768e-09)
(0.0029595663392413337 -2.2441845682155142e-08 -2.2441845682155116e-08)
(0.004734209928699918 6.184841605206962e-08 -2.0154565954796327e-07)
(0.006411401369447403 4.94594727321427e-07 -6.056975819664167e-07)
(0.008017289960302987 1.579475456390679e-06 -1.2547832244376932e-06)
(0.009567364113946849 3.637844065665876e-06 -2.1401775774797956e-06)
(0.011071905729301588 6.978299044382723e-06 -3.2383945137808057e-06)
(0.012538115646425358 1.1894223261087831e-05 -4.528318653556966e-06)
(0.013971011162001312 1.8668233261003173e-05 -5.998700445027031e-06)
(0.01537425847923142 2.757932443124235e-05 -7.649035514629836e-06)
(0.016750678894224564 3.891628439313593e-05 -9.486468832939261e-06)
(0.018101977274561688 5.299054562817608e-05 -1.152827140078732e-05)
(0.019429367806521852 7.012952067312742e-05 -1.3789044015981252e-05)
(0.020733432408553586 9.067837506038618e-05 -1.6274788218633355e-05)
(0.02201436347054022 0.00011498249824615757 -1.898325578939477e-05)
(0.023271666296975402 0.00014337484341084714 -2.1896943093754294e-05)
(0.02450463166818995 0.00017616865059900578 -2.4989302330675707e-05)
(0.02571212841009605 0.00021359620798731526 -2.8210894143993563e-05)
(0.026892882333136428 0.00025586227926584817 -3.150537296449406e-05)
(0.02804533346288162 0.00030304752414410553 -3.480937968465908e-05)
(0.029167751183409522 0.0003551661161789272 -3.805485079626482e-05)
(0.030258418658715265 0.0004121468967022084 -4.117486943509136e-05)
(0.03131567276891883 0.00047378002718696875 -4.4105861212098426e-05)
(0.03233784642577989 0.0005398217799004276 -4.67850023587113e-05)
(0.03332348156218758 0.000609912307212907 -4.916658195648363e-05)
(0.03427120785052575 0.000683626131280219 -5.121281478519404e-05)
(0.03517978840595559 0.0007605054435764146 -5.2891532353505285e-05)
(0.036048437241059376 0.0008400286024104356 -5.418908558127501e-05)
(0.03687644695943832 0.000921647129858743 -5.509518126835738e-05)
(0.0376633373198642 0.0010048090968105003 -5.560894575584634e-05)
(0.03840898054307559 0.0010889671073966093 -5.574403615249582e-05)
(0.03911330003229243 0.001173559039333733 -5.551605366488465e-05)
(0.03977650343290104 0.0012580573481668494 -5.494522556792455e-05)
(0.040399098810339526 0.0013419717380614624 -5.40566518455103e-05)
(0.040981646777188845 0.0014248024082556248 -5.2876692885241465e-05)
(0.04152488409869632 0.0015061141470645233 -5.1434735804545734e-05)
(0.042029712017139 0.0015855287667842402 -4.9763039330011745e-05)
(0.042497084218080905 0.0016626621074457655 -4.789480654661315e-05)
(0.042928069927748835 0.0017371925978584167 -4.585860914430872e-05)
(0.043323851955715455 0.0018088575808950839 -4.367868067898608e-05)
(0.04368566756732922 0.0018773909793332855 -4.137987055997836e-05)
(0.04401477832084422 0.0019425764802058032 -3.898610348683956e-05)
(0.04431246562429112 0.0020042584539101986 -3.65200520450472e-05)
(0.04458006327173746 0.002062281373082665 -3.400501143000548e-05)
(0.044818905723515774 0.0021165179401950733 -3.146054789276153e-05)
(0.045030287328744416 0.0021668934083639443 -2.8899077747280167e-05)
(0.04521554691455083 0.0022133373794746515 -2.6332671288940967e-05)
(0.04537602805387609 0.002255793886472405 -2.377426324624313e-05)
(0.04551297488380881 0.0022942537360011207 -2.1238615213683724e-05)
(0.04562765292884183 0.002328717881622886 -1.874124734011373e-05)
(0.045721350956543304 0.0023591943992932185 -1.6297056764420438e-05)
(0.04579522640324619 0.0023857301743738873 -1.3913970040149232e-05)
(0.045850409462149605 0.0024083900715962314 -1.1597150928244423e-05)
(0.045888068138961874 0.0024272426964149292 -9.351766107055796e-06)
(0.04590928265745982 0.0024423623458070098 -7.180519281027026e-06)
(0.04591505670956046 0.0024538289538258806 -5.083852078837526e-06)
(0.04590642932910517 0.0024617265305988912 -3.062111684294816e-06)
(0.045884451396239166 0.0024661426654371504 -1.1155472643712305e-06)
(0.04585015360309446 0.0024671680058887375 7.557847419422361e-07)
(0.045804598345479966 0.0024648973326088226 2.5518763123470926e-06)
(0.04574887169944725 0.0024594280131082693 4.272985841059086e-06)
(0.04568400122129335 0.002450851024946595 5.920844709143377e-06)
(0.04561101571922574 0.002439257492374125 7.497806066165282e-06)
(0.045530978926207465 0.002424742162717672 9.006388201727201e-06)
(0.045444924405509686 0.002407391496136943 1.0450600508998438e-05)
(0.04535385227134356 0.0023872830071229997 1.1836030587886316e-05)
(0.04525879513721981 0.0023644972090637434 1.3168542143972032e-05)
(0.045160736737662785 0.002339110756162128 1.4453286037590625e-05)
(0.04506044141989318 0.0023111814476399675 1.569283352754468e-05)
(0.044958653325342525 0.0022807657806258874 1.6889347834693012e-05)
(0.04485613649771792 0.002247924177566935 1.804424337023679e-05)
(0.04475362038769974 0.0022127319027003224 1.9150344750736013e-05)
(0.04465182330232405 0.002175274641519791 2.0195138240289013e-05)
(0.044551487064353704 0.002135642198602146 2.1165660918120235e-05)
(0.04445336498120576 0.002093956151499674 2.205014234703733e-05)
(0.0443582124981542 0.0020503909973750086 2.28392039894586e-05)
(0.04426680745551667 0.002005132526537224 2.352345333332989e-05)
(0.044179900270913654 0.001958371655443839 2.409501454466413e-05)
(0.04409797335789637 0.0019102965397683666 2.455578203189924e-05)
(0.04402142291005223 0.0018610987942147092 2.4911208031568198e-05)
(0.04395065336455433 0.0018109766029972608 2.516683972547778e-05)
(0.043886004483262527 0.0017601279685122168 2.532532936976971e-05)
(0.04382774738326806 0.0017087504799501454 2.538626702170992e-05)
(0.04377615655546941 0.0016570482419997776 2.5349125944162625e-05)
(0.04373142983223684 0.0016052046584672435 2.5220292945569592e-05)
(0.04369352287881865 0.0015533276901024678 2.502673093495263e-05)
(0.043662342260804676 0.0015015139682495876 2.4800069360824203e-05)
(0.04363780496624818 0.00144985859150256 2.4569682297578948e-05)
(0.043619972910688413 0.0013984152108647192 2.4334554310750195e-05)
(0.04360899004687271 0.0013472147385407594 2.4076427156375725e-05)
(0.043605000696208075 0.001296289666691493 2.3776439238725277e-05)
(0.04360801413318382 0.0012457157927432514 2.3423686105473877e-05)
(0.043617843718728774 0.001195630994252292 2.3019008576746546e-05)
(0.04363427953116924 0.0011461821036961447 2.2564201857594932e-05)
(0.04365709714514159 0.0010975023506322754 2.206279414362869e-05)
(0.0436860439837307 0.0010496627704836166 2.1524443405341e-05)
(0.043720852601427135 0.0010027214435756613 2.0960505947899224e-05)
(0.04376122743524606 0.0009567355142372051 2.0382630545622645e-05)
(0.043806698407927065 0.0009117392670697953 1.9801879593269832e-05)
(0.04385668715093938 0.0008677541573118503 1.9229142928117016e-05)
(0.04391059410901979 0.0008247999652813046 1.8675669805867197e-05)
(0.043967830033972075 0.0007828386921441537 1.815299973770369e-05)
(0.04402782222296325 0.0007417623275057795 1.767295314958245e-05)
(0.044089980118085036 0.0007014550113724905 1.724769560067848e-05)
(0.04415379865964855 0.0006618180131994845 1.688060213061925e-05)
(0.044219002293071255 0.0006227987033985592 1.6553783136877425e-05)
(0.0442853406733619 0.0005843494457545866 1.624569880807161e-05)
(0.044352516157743556 0.0005464311218456393 1.593755979713913e-05)
(0.04442005090399619 0.0005090489329276406 1.5625366477095802e-05)
(0.04448740382323242 0.0004722206989199993 1.5309244950310434e-05)
(0.04455404129627385 0.0004359653816669137 1.4988246226819881e-05)
(0.04461961204501136 0.0004003083007819065 1.465300212268716e-05)
(0.04468384700276636 0.00036527817796381157 1.4289901944039382e-05)
(0.04474643943729261 0.00033091376704404054 1.3885861364084175e-05)
(0.04480669623803839 0.0002973733230866397 1.3440148093215025e-05)
(0.04486364126420652 0.0002649020448538941 1.2960855401891751e-05)
(0.044916279752041766 0.00023373168739376977 1.2456900090665849e-05)
(0.04496394163673247 0.0002036590848162901 1.1944476830484022e-05)
(0.04500625884103473 0.0001740735273869076 1.1446637133099865e-05)
(0.04504286939472151 0.00014438195593754105 1.0987214138562237e-05)
(0.04507353207470073 0.00011530857410743037 1.058517777161601e-05)
(0.04509813794150768 8.901443269165604e-05 1.0254145169325715e-05)
(0.045116583070149936 6.780048008922664e-05 1.0007888273628412e-05)
(0.04512876216733349 5.404434475344841e-05 9.860618821687151e-06)
(0.0451345685549233 5.0202126274312693e-05 9.82699847758722e-06)
(0.0016379253899411433 -2.607631816774123e-08 5.663689180779905e-08)
(0.004734209928699917 -2.015456595479632e-07 6.184841605206959e-08)
(0.0076469133047531715 -3.3898211057027924e-07 -3.3898211057027903e-07)
(0.010420679475586381 -5.6567816341041546e-08 -1.3187058408295324e-06)
(0.013086427070643376 1.106841947410613e-06 -2.9335170979258773e-06)
(0.01566477763350208 3.6424876364946866e-06 -5.172727794289689e-06)
(0.01817045505264785 8.039081421913518e-06 -7.994573081758508e-06)
(0.02061419472393351 1.4778800430680953e-05 -1.1360059735990985e-05)
(0.02300366163147324 2.4341046183358315e-05 -1.5247635041078818e-05)
(0.025344553416857905 3.720978051014597e-05 -1.96595671750247e-05)
(0.027641290858944813 5.388497786702069e-05 -2.4612930757959133e-05)
(0.029896541786345186 7.489333710837007e-05 -3.014126531459912e-05)
(0.032112191648736604 0.0001007765167702729 -3.62695864138939e-05)
(0.03428910990263752 0.00013208663431304115 -4.300083066529033e-05)
(0.03642752961938457 0.0001693635846676517 -5.0316013747828394e-05)
(0.03852655949839269 0.00021310538219757388 -5.8155805854740314e-05)
(0.04058495560833965 0.00026377281654633484 -6.643929327128296e-05)
(0.04260078304683681 0.00032168945202020274 -7.503378657825544e-05)
(0.04457187166586107 0.0003871331690358811 -8.379048075575593e-05)
(0.046495588603126844 0.0004601926427003666 -9.254458591431983e-05)
(0.04836902340862967 0.0005408547184988569 -0.00010112030670063321)
(0.05018929580193463 0.0006289826092560069 -0.00010934687856970426)
(0.05195362727080017 0.000724239465773536 -0.0001170655503689495)
(0.05365923490846304 0.0008262390193620025 -0.0001241196934935062)
(0.055303693922686414 0.0009344315215775035 -0.0001303945680288107)
(0.056884730821307024 0.0010481739998078044 -0.00013579479530136527)
(0.05840029677517551 0.0011667771474777175 -0.00014023930349161295)
(0.05984910014054506 0.0012894625191215972 -0.00014369413989277037)
(0.06122998188099949 0.001415412718205789 -0.0001461339011841324)
(0.06254216177442125 0.001543804818269653 -0.000147556294381359)
(0.06378544699655173 0.0016738220793641075 -0.00014799466985285727)
(0.06495973054700731 0.0018046256085591764 -0.00014748721520955625)
(0.0660653761959439 0.0019354258741039836 -0.00014608480199242578)
(0.06710324524949662 0.0020654865623794417 -0.00014385166779322305)
(0.06807428677324902 0.002194056612581869 -0.00014085525988865967)
(0.06897974071161513 0.0023204763361785743 -0.00013716961278720864)
(0.06982111872776323 0.002444166546773453 -0.00013287505445193452)
(0.07060001993614486 0.002564538346065908 -0.00012805433608933136)
(0.07131823227209773 0.0026810932572690275 -0.00012278045782359938)
(0.07197772942367739 0.002793417838069222 -0.00011711731923441386)
(0.07258057582200775 0.0029010927491327295 -0.0001111305160879411)
(0.0731288773401889 0.0030037731275385465 -0.0001048825849673539)
(0.07362477405601128 0.0031012050510381564 -9.84320194798774e-05)
(0.07407049353983339 0.0031931341049569162 -9.183888884017451e-05)
(0.07446826191248072 0.0032793487571545787 -8.515451180607052e-05)
(0.07482023382051753 0.0033597177687712337 -7.841328697797137e-05)
(0.07512863749790807 0.0034341160092737234 -7.164895230937555e-05)
(0.07539571039661215 0.0035024404370171303 -6.489682355550573e-05)
(0.0756235284985991 0.003564660861965475 -5.819471611456649e-05)
(0.07581420434707901 0.003620762429068871 -5.1581960216250594e-05)
(0.07596988821460493 0.0036707402129739987 -4.509638796174612e-05)
(0.07609250414611016 0.0037146453540501216 -3.8758685959230163e-05)
(0.07618392762214354 0.003752554713726586 -3.2582769450052726e-05)
(0.07624609722676107 0.0037845503676197656 -2.658262966291824e-05)
(0.07628081165957218 0.0038107266737438775 -2.07667587728211e-05)
(0.07628974797452738 0.003831189845009626 -1.5138606030593582e-05)
(0.0762746424785141 0.003846051977723887 -9.701478271426202e-06)
(0.07623724882017081 0.0038554327343624005 -4.457756916811247e-06)
(0.07617928163692253 0.003859461532898639 5.922158039843178e-07)
(0.07610250761621842 0.0038582745602482745 5.448419888292493e-06)
(0.07600873475220651 0.0038520115788589922 1.011147009061276e-05)
(0.07589968525594135 0.0038408014578955965 1.4585462237752733e-05)
(0.07577708816634611 0.00382477268436034 1.8875965530120555e-05)
(0.07564273093557691 0.0038040593587391953 2.298888309789733e-05)
(0.07549834407239234 0.0037787914983994668 2.693214020563285e-05)
(0.07534559525090462 0.0037490945668484667 3.071579823272622e-05)
(0.07518620600539715 0.0037150993405147843 3.4350402393282826e-05)
(0.07502181819060638 0.0036769334595372215 3.784584298353829e-05)
(0.07485371335270581 0.0036347033847658446 4.120921676995724e-05)
(0.0746831405899177 0.003588515601401653 4.444732371260476e-05)
(0.07451138053926422 0.0035384826186176414 4.756510357503897e-05)
(0.07433963655186257 0.0034847329620251305 5.0545641187000404e-05)
(0.07416908124145367 0.0034274072153106204 5.3358459443441455e-05)
(0.07400092557989313 0.0033666524972166597 5.597198586929643e-05)
(0.07383641074315422 0.003302659085303924 5.8357508891387374e-05)
(0.07367680147655609 0.003235688401759633 6.049206156553114e-05)
(0.07352340207209722 0.0031660180095669736 6.235263690316976e-05)
(0.0733774706103885 0.003093934155377854 6.391973085755526e-05)
(0.07323981438402098 0.0030197244322040175 6.519655721404264e-05)
(0.07311109559345957 0.002943683734738624 6.619458360774808e-05)
(0.07299199012774611 0.00286611688418962 6.69256006377667e-05)
(0.0728830632933862 0.0027873231905379504 6.73977629840277e-05)
(0.0727847630418902 0.002707595805952909 6.761537283260727e-05)
(0.0726975426936195 0.00262723734032496 6.758279139901363e-05)
(0.07262173035572961 0.00254652211180595 6.73188995331228e-05)
(0.0725572583872913 0.0024656196441557514 6.688539615544266e-05)
(0.07250397898467102 0.0023846843003175523 6.635385639858114e-05)
(0.07246176199615323 0.002303869699943978 6.579094366555391e-05)
(0.07243071915484045 0.002223278900932749 6.51962926176342e-05)
(0.07241109924422529 0.0021429877913724366 6.453153808475535e-05)
(0.0724031517383374 0.0020630752665815287 6.37570321675046e-05)
(0.072406890998024 0.001983665299575433 6.284967044418134e-05)
(0.07242199025704522 0.001904945863358131 6.181077074383253e-05)
(0.07244808231575386 0.0018271155203942236 6.0643629261616225e-05)
(0.07248478316991674 0.0017503596495994746 5.935574279980728e-05)
(0.07253169037759671 0.0016747986356434271 5.796955489964419e-05)
(0.07258838387062343 0.0016005404319679945 5.651162335059561e-05)
(0.07265439611959106 0.001527690867574145 5.5009536682493905e-05)
(0.0727289555341797 0.001456308366112934 5.3492808410719634e-05)
(0.07281110260194074 0.001386424658208396 5.199250253698861e-05)
(0.07289984222791637 0.0013180692670444324 5.054061201417957e-05)
(0.07299418669665263 0.001251197511618035 4.9166181040213985e-05)
(0.07309316398128363 0.001185674786279986 4.7894482451074715e-05)
(0.0731957710529832 0.0011213564486033287 4.675126301839401e-05)
(0.0733011554298992 0.001058118859535072 4.5742966639831185e-05)
(0.07340886699390395 0.0009958951675165936 4.4829390895542796e-05)
(0.07351850081196401 0.0009346245237066018 4.396229609074491e-05)
(0.07362957203054037 0.0008742574260225492 4.3099340629940746e-05)
(0.07374128920732838 0.0008148033748039323 4.2230146045131745e-05)
(0.07385275381177372 0.0007562886748138368 4.135320682886579e-05)
(0.07396307852689644 0.0006987393027464203 4.0464718377222696e-05)
(0.07407166966806203 0.0006421752379564198 3.954328461034462e-05)
(0.07417806544083128 0.0005866136997360186 3.8558612661108924e-05)
(0.07428174051947532 0.000532087035060287 3.748156673969522e-05)
(0.07438152179235114 0.0004788190324680172 3.631027518119657e-05)
(0.07447576151427004 0.000427172465451873 3.506234415454455e-05)
(0.0745627820529646 0.0003774879804827406 3.375738973556606e-05)
(0.07464148281911247 0.00032941594227532515 3.243493857119754e-05)
(0.07471130015147841 0.00028195980960847144 3.1153261852044684e-05)
(0.07477168248166176 0.00023415246657665966 2.997261530859133e-05)
(0.07482225707138794 0.00018717364503776073 2.893989587511371e-05)
(0.07486284711266515 0.00014454481825979394 2.808730855692144e-05)
(0.07489328306496108 0.00011001550343370996 2.7447320357482255e-05)
(0.07491339319217495 8.746023463631846e-05 2.7053430562091517e-05)
(0.07492300353678093 8.088148341861555e-05 2.6940194484082057e-05)
(0.0021993062351679605 -7.65501117424934e-08 2.5182309718012595e-07)
(0.006411401369447406 -6.056975819664168e-07 4.945947273214268e-07)
(0.010420679475586383 -1.3187058408295317e-06 -5.656781634104089e-08)
(0.014264952890026382 -1.6891144707591758e-06 -1.689114470759177e-06)
(0.01797430503620334 -1.107113986410454e-06 -4.503656568153416e-06)
(0.021570751562388173 1.074742071670749e-06 -8.495530674252923e-06)
(0.02507121804146181 5.512622710706723e-06 -1.3613325522551294e-05)
(0.028488595090602597 1.2869551385706362e-05 -1.9808546072800115e-05)
(0.03183233885778003 2.3819314669234978e-05 -2.705680401740117e-05)
(0.03510963361196746 3.905252561043888e-05 -3.536823600959484e-05)
(0.03832610439251613 5.928219820319584e-05 -4.477149319082863e-05)
(0.04148511662673308 8.524874035320124e-05 -5.531111781542711e-05)
(0.04458901296719108 0.00011770061627627288 -6.701206247102126e-05)
(0.04763879947479201 0.00015737924668224283 -7.985603444033779e-05)
(0.05063462154319826 0.00020499560128819244 -9.378405981189648e-05)
(0.05357509944921943 0.00026118011572217047 -0.00010866349495748556)
(0.05645837490694658 0.00032650631292745593 -0.00012432486371319535)
(0.05928166142170313 0.0004013527280295391 -0.00014051449808848802)
(0.06204185364970812 0.0004860341728180192 -0.00015695196554781426)
(0.06473523081669566 0.000580621497965046 -0.0001733335468709117)
(0.06735770045647681 0.0006850536680999768 -0.0001893385613331941)
(0.06990523012454021 0.0007991181206591065 -0.00020465860155461857)
(0.07237395912367227 0.000922358223154292 -0.0002190122121374682)
(0.0747600259543315 0.001054256558519132 -0.0002321222701489495)
(0.07706008454875542 0.0011941032702673766 -0.00024378612510150277)
(0.07927100868549232 0.0013410775724479738 -0.0002538355826580414)
(0.08138998974373025 0.0014943039560076923 -0.0002621281622817125)
(0.08341528413832436 0.001652805957769974 -0.0002686058409775885)
(0.0853453365660101 0.0018155602720408683 -0.00027322598164083176)
(0.08717911571536738 0.0019815385864765437 -0.0002759858968342914)
(0.0889164017220546 0.002149723293784268 -0.00027694447365732457)
(0.09055709502540896 0.0023190692654447135 -0.00027616907182373846)
(0.09210174481705292 0.0024885899286067096 -0.00027375008407862873)
(0.09355158585426007 0.002657361902207096 -0.0002698021770545723)
(0.09490797553577232 0.002824442765614757 -0.00026444575307515246)
(0.09617266805530149 0.002988998638985852 -0.0002578124679970451)
(0.0973477886053993 0.003150291077789103 -0.00025004475342663005)
(0.09843558438467945 0.003307568627432517 -0.00024128943460559668)
(0.09943856040725085 0.003460188939085113 -0.00023167788900028887)
(0.10035947551954094 0.0036076121748949987 -0.00022132711785870357)
(0.10120121514769119 0.003749290177625611 -0.00021035731470305457)
(0.10196672158841458 0.003884766337883343 -0.00019888278311527407)
(0.1026589836914603 0.00401369601725605 -0.0001870100778827124)
(0.10328111240916955 0.004135733002347689 -0.00017484862383983614)
(0.10383621362568346 0.004250584758376376 -0.00016249291244980967)
(0.10432728804087495 0.0043580599471675 -0.0001500083754951732)
(0.10475743834065612 0.004457974142244285 -0.00013745951377527215)
(0.10512978202682367 0.0045501708378275114 -0.0001249131068136075)
(0.10544721771440642 0.004634587450771175 -0.00011243841055072561)
(0.10571269639165545 0.004711180495159646 -0.0001001070456933926)
(0.10592921999860411 0.0047799181319739354 -8.798793692669238e-05)
(0.10609946276539817 0.004840837912776541 -7.611896247925505e-05)
(0.10622602594908079 0.0048940087700227045 -6.452575113795141e-05)
(0.1063115992083266 0.004939505554088819 -5.323419584322243e-05)
(0.10635869238108493 0.004977421945975388 -4.226224712351392e-05)
(0.10636965972576079 0.00500786957710911 -3.1620589042854334e-05)
(0.10634693916354314 0.005030966987835223 -2.1319854981307073e-05)
(0.10629298653708512 0.005046845257964552 -1.1367752951025518e-05)