/*--------------------------------*- C++ -*----------------------------------*\
| =========                 |                                                 |
| \\      /  F ield         | OpenFOAM: The Open Source CFD Toolbox           |
|  \\    /   O peration     | Version:  4.x                                   |
|   \\  /    A nd           | Web:      www.OpenFOAM.org                      |
|    \\/     M anipulation  |                                                 |
\*---------------------------------------------------------------------------*/
FoamFile
{
    version     2.0;
    format      ascii;
    class       volVectorField;
    location    "97.86";
    object      U;
}
// * * * * * * * * * * * * * * * * * * * * * * * * * * * * * * * * * * * * * //

dimensions      [0 1 -1 0 0 0 0];

internalField   nonuniform List<vector> 
15625
(
(0.000863942 -1.10691e-15 -1.1069e-15)
(0.00221249 -1.75428e-15 -5.58629e-16)
(0.00343972 -8.2312e-16 -1.68175e-16)
(0.00459629 -4.11932e-16 -6.5939e-17)
(0.00570022 -2.51219e-16 -3.27682e-17)
(0.00675666 -1.6672e-16 -1.49972e-17)
(0.00776562 -1.16717e-16 -6.45124e-18)
(0.0087258 -8.67275e-17 -2.84083e-18)
(0.00963641 -6.78723e-17 -1.33385e-18)
(0.0104978 -5.50825e-17 -6.69475e-19)
(0.0113114 -4.57493e-17 -3.99286e-19)
(0.0120795 -3.85942e-17 -2.56301e-19)
(0.0128051 -3.28824e-17 -1.56045e-19)
(0.013491 -2.82029e-17 -1.39296e-19)
(0.0141404 -2.43302e-17 -2.7487e-20)
(0.0147563 -2.10184e-17 -3.891e-20)
(0.0153414 -1.82002e-17 2.3736e-20)
(0.0158982 -1.58038e-17 -1.55968e-20)
(0.0164291 -1.36356e-17 -3.9796e-21)
(0.0169362 -1.17155e-17 -5.77656e-20)
(0.0174213 -1.01475e-17 -4.21742e-20)
(0.0178861 -8.82458e-18 -2.57461e-20)
(0.018332 -7.64315e-18 1.98293e-20)
(0.0187605 -6.61652e-18 4.70096e-20)
(0.0191728 -5.69687e-18 -1.3821e-21)
(0.0195698 -4.79401e-18 -4.32431e-20)
(0.0199527 -3.93008e-18 -6.74747e-20)
(0.0203223 -3.15317e-18 -5.75427e-20)
(0.0206794 -2.33236e-18 -1.62914e-20)
(0.0210247 -1.69599e-18 -3.01294e-21)
(0.0213589 -1.21377e-18 1.04213e-19)
(0.0216827 -6.84265e-19 1.21137e-19)
(0.0219966 -2.28115e-19 3.72644e-20)
(0.022301 1.31329e-19 1.47329e-19)
(0.0225965 5.10948e-19 3.27529e-20)
(0.0228835 9.4273e-19 -1.06936e-20)
(0.0231625 1.21926e-18 1.1601e-19)
(0.0234337 1.49395e-18 9.81583e-20)
(0.0236976 1.81209e-18 1.25886e-19)
(0.0239544 2.03401e-18 1.69068e-19)
(0.0242045 2.2775e-18 1.15476e-19)
(0.0244481 2.65366e-18 1.09369e-19)
(0.0246856 3.02751e-18 6.43051e-20)
(0.0249171 3.27186e-18 3.78495e-20)
(0.0251428 3.5393e-18 -3.43323e-20)
(0.0253631 3.94568e-18 -1.52571e-19)
(0.0255781 4.07043e-18 4.37788e-20)
(0.0257879 4.05661e-18 1.83922e-20)
(0.0259929 4.10277e-18 5.58059e-20)
(0.026193 4.14242e-18 1.12457e-19)
(0.0263886 4.46825e-18 1.57425e-19)
(0.0265797 4.72725e-18 -2.58108e-20)
(0.0267665 4.73775e-18 -1.15515e-19)
(0.0269491 4.68357e-18 -8.30741e-20)
(0.0271276 4.65084e-18 -5.83387e-20)
(0.0273022 4.77827e-18 -9.99249e-20)
(0.027473 4.957e-18 -9.91889e-20)
(0.0276401 5.12225e-18 -1.17872e-19)
(0.0278036 5.36567e-18 -1.47686e-19)
(0.0279635 5.45369e-18 1.13665e-19)
(0.0281201 5.28279e-18 6.26057e-20)
(0.0282732 5.22667e-18 -1.56711e-19)
(0.0284231 5.40312e-18 -2.47506e-19)
(0.0285699 5.62875e-18 -9.98959e-20)
(0.0287135 5.74873e-18 -1.04069e-19)
(0.0288541 5.7851e-18 -1.02209e-19)
(0.0289917 5.65753e-18 -1.01908e-19)
(0.0291264 5.67569e-18 -3.41253e-20)
(0.0292582 5.80334e-18 1.35117e-19)
(0.0293873 5.77245e-18 -3.87619e-20)
(0.0295136 5.62865e-18 1.15985e-19)
(0.0296372 5.27994e-18 1.79976e-19)
(0.0297582 5.00742e-18 6.76073e-20)
(0.0298765 4.74331e-18 -7.21769e-20)
(0.0299923 4.35455e-18 7.11953e-20)
(0.0301056 4.21851e-18 -6.76276e-20)
(0.0302164 4.17971e-18 -1.40557e-19)
(0.0303248 4.2861e-18 -1.66984e-19)
(0.0304307 4.34511e-18 -1.31258e-19)
(0.0305343 3.95525e-18 3.48606e-21)
(0.0306355 3.86002e-18 1.94207e-20)
(0.0307344 3.93176e-18 4.92581e-20)
(0.030831 4.06777e-18 1.99765e-21)
(0.0309253 4.3563e-18 -8.36497e-20)
(0.0310173 4.42115e-18 -1.27737e-19)
(0.0311072 4.40782e-18 -1.42792e-19)
(0.0311948 4.59534e-18 -2.17746e-19)
(0.0312802 4.77189e-18 -7.65198e-20)
(0.0313634 4.56244e-18 2.29969e-20)
(0.0314444 4.06856e-18 2.68062e-19)
(0.0315233 3.4582e-18 2.07167e-19)
(0.0316001 3.00685e-18 1.50384e-19)
(0.0316747 2.82747e-18 1.29421e-19)
(0.0317472 2.53443e-18 2.23458e-19)
(0.0318175 2.12642e-18 1.91146e-19)
(0.0318858 2.51875e-18 4.83243e-21)
(0.0319519 3.26148e-18 -1.30034e-20)
(0.0320159 3.45264e-18 9.23356e-20)
(0.0320778 3.51799e-18 1.31226e-19)
(0.0321376 3.64969e-18 1.58836e-19)
(0.0321953 3.6485e-18 2.38034e-19)
(0.0322508 3.76862e-18 -1.35287e-20)
(0.0323042 4.03273e-18 9.77682e-20)
(0.0323555 4.00365e-18 4.05097e-20)
(0.0324047 3.95398e-18 -2.10455e-19)
(0.0324517 4.18707e-18 -1.24017e-19)
(0.0324966 4.08648e-18 2.45792e-19)
(0.0325393 3.8203e-18 1.54398e-19)
(0.0325798 3.77423e-18 1.95494e-19)
(0.0326181 3.66224e-18 2.0368e-19)
(0.0326542 3.30026e-18 1.96507e-19)
(0.0326881 2.96191e-18 1.16495e-19)
(0.0327198 3.19446e-18 1.69702e-19)
(0.0327492 2.88925e-18 2.68581e-19)
(0.0327762 2.33426e-18 3.15314e-21)
(0.032801 1.68978e-18 1.19098e-19)
(0.0328235 1.34367e-18 1.1524e-20)
(0.0328435 1.9433e-18 1.70379e-19)
(0.0328612 2.25887e-18 2.87059e-20)
(0.0328765 2.16293e-18 2.00662e-19)
(0.0328893 1.72745e-18 3.4633e-19)
(0.0328996 1.34518e-18 2.99938e-19)
(0.0329075 7.86791e-19 3.32743e-19)
(0.0329127 6.39637e-19 9.04584e-20)
(0.0329153 4.23374e-19 1.20826e-19)
(0.00221249 -5.58721e-16 -1.75425e-15)
(0.00594006 -1.36988e-15 -1.37007e-15)
(0.00940162 -1.02409e-15 -6.85574e-16)
(0.0126663 -7.39132e-16 -3.74742e-16)
(0.0157642 -5.54373e-16 -2.14136e-16)
(0.0187052 -4.26609e-16 -1.25146e-16)
(0.021491 -3.37133e-16 -7.56168e-17)
(0.0241215 -2.74731e-16 -4.81812e-17)
(0.0265989 -2.30406e-16 -3.23773e-17)
(0.028928 -1.97754e-16 -2.30355e-17)
(0.0311163 -1.728e-16 -1.73746e-17)
(0.0331727 -1.53103e-16 -1.36297e-17)
(0.0351071 -1.37125e-16 -1.08406e-17)
(0.0369294 -1.24011e-16 -8.89629e-18)
(0.0386492 -1.13157e-16 -7.25449e-18)
(0.0402755 -1.03894e-16 -5.98618e-18)
(0.0418165 -9.61001e-17 -4.83025e-18)
(0.0432795 -8.9603e-17 -4.34577e-18)
(0.0446713 -8.3712e-17 -3.79838e-18)
(0.0459978 -7.83728e-17 -3.25987e-18)
(0.0472642 -7.38142e-17 -3.14594e-18)
(0.0484754 -6.98561e-17 -2.49775e-18)
(0.0496355 -6.6523e-17 -2.17345e-18)
(0.0507482 -6.38347e-17 -1.8128e-18)
(0.0518171 -6.13454e-17 -1.85638e-18)
(0.052845 -5.88246e-17 -1.77253e-18)
(0.0538347 -5.6427e-17 -1.75461e-18)
(0.0547886 -5.42609e-17 -1.52072e-18)
(0.0557091 -5.20186e-17 -1.14334e-18)
(0.056598 -4.99819e-17 -1.19533e-18)
(0.0574574 -4.83106e-17 -9.41026e-19)
(0.0582887 -4.64736e-17 -9.32499e-19)
(0.0590936 -4.4554e-17 -1.13767e-18)
(0.0598735 -4.29294e-17 -7.81992e-19)
(0.0606296 -4.16013e-17 -7.70576e-19)
(0.0613632 -4.02036e-17 -9.13791e-19)
(0.0620754 -3.89324e-17 -7.47448e-19)
(0.0627671 -3.75756e-17 -7.64511e-19)
(0.0634395 -3.61421e-17 -7.24203e-19)
(0.0640932 -3.49611e-17 -8.74184e-19)
(0.0647291 -3.36694e-17 -8.00383e-19)
(0.0653481 -3.20269e-17 -9.49341e-19)
(0.0659507 -3.04669e-17 -5.96933e-19)
(0.0665377 -2.90443e-17 -5.60325e-19)
(0.0671098 -2.75528e-17 -6.49421e-19)
(0.0676674 -2.56322e-17 -6.83608e-19)
(0.0682111 -2.45708e-17 -2.56071e-19)
(0.0687414 -2.43798e-17 -2.99355e-19)
(0.0692589 -2.38826e-17 -5.14827e-19)
(0.0697639 -2.33229e-17 -5.68642e-19)
(0.0702569 -2.23772e-17 -3.3855e-19)
(0.0707384 -2.15234e-17 -3.60072e-19)
(0.0712086 -2.10574e-17 -6.42343e-19)
(0.0716679 -2.08937e-17 -5.04473e-19)
(0.0721168 -2.06105e-17 -4.84909e-19)
(0.0725554 -1.99289e-17 -4.61125e-19)
(0.0729841 -1.9442e-17 -2.81707e-19)
(0.0734032 -1.90421e-17 -4.7554e-19)
(0.073813 -1.81858e-17 -2.37843e-19)
(0.0742137 -1.73883e-17 -3.89026e-19)
(0.0746055 -1.75766e-17 -2.01056e-19)
(0.0749887 -1.77399e-17 -8.26645e-19)
(0.0753636 -1.71183e-17 -9.40949e-19)
(0.0757302 -1.61241e-17 -6.03155e-19)
(0.0760889 -1.50486e-17 -5.27588e-19)
(0.0764398 -1.4192e-17 -7.9528e-19)
(0.076783 -1.36785e-17 -3.63089e-19)
(0.0771188 -1.30019e-17 -4.67036e-19)
(0.0774473 -1.22544e-17 -3.14285e-19)
(0.0777687 -1.21302e-17 -2.16478e-19)
(0.078083 -1.22046e-17 -7.80943e-20)
(0.0783905 -1.25478e-17 3.16288e-20)
(0.0786913 -1.28464e-17 -1.88069e-19)
(0.0789854 -1.26888e-17 -2.25182e-19)
(0.079273 -1.28639e-17 2.91642e-19)
(0.0795542 -1.32638e-17 2.38828e-19)
(0.0798292 -1.3541e-17 -1.61763e-20)
(0.0800979 -1.34402e-17 -2.4685e-19)
(0.0803605 -1.35224e-17 3.67406e-20)
(0.0806171 -1.43699e-17 2.23054e-19)
(0.0808678 -1.45894e-17 1.45298e-20)
(0.0811126 -1.4065e-17 -1.69417e-19)
(0.0813516 -1.33505e-17 -5.18138e-19)
(0.0815848 -1.25412e-17 -4.76351e-19)
(0.0818124 -1.19005e-17 -2.66818e-19)
(0.0820344 -1.09731e-17 -2.49062e-19)
(0.0822509 -9.91061e-18 -5.24241e-19)
(0.0824618 -9.16243e-18 -4.62174e-19)
(0.0826672 -8.99394e-18 1.95538e-19)
(0.0828672 -9.95596e-18 5.66336e-19)
(0.0830619 -1.13145e-17 3.87591e-19)
(0.0832511 -1.24286e-17 -1.59797e-19)
(0.083435 -1.32824e-17 2.03053e-19)
(0.0836137 -1.34807e-17 3.0518e-19)
(0.083787 -1.3896e-17 -1.09264e-19)
(0.083955 -1.34369e-17 -4.24745e-19)
(0.0841178 -1.24052e-17 -5.2977e-19)
(0.0842754 -1.18801e-17 -8.71279e-20)
(0.0844277 -1.10555e-17 -2.73736e-19)
(0.0845748 -1.04949e-17 -1.52373e-19)
(0.0847166 -1.04005e-17 -1.35486e-19)
(0.0848532 -9.9072e-18 -7.21562e-19)
(0.0849845 -9.01789e-18 -3.09317e-19)
(0.0851106 -8.49788e-18 -5.06807e-19)
(0.0852314 -7.78421e-18 -5.29826e-19)
(0.0853468 -6.97615e-18 -3.58784e-19)
(0.085457 -6.31538e-18 -3.81988e-19)
(0.0855619 -6.15165e-18 -2.21036e-19)
(0.0856613 -5.90629e-18 -1.55239e-19)
(0.0857554 -5.42961e-18 -3.80842e-19)
(0.085844 -5.5978e-18 -2.14092e-19)
(0.0859272 -5.38854e-18 -2.24601e-19)
(0.0860048 -3.36969e-18 -3.45163e-19)
(0.0860769 -2.28795e-18 3.74371e-19)
(0.0861433 -2.16723e-18 1.74878e-19)
(0.0862041 -1.88776e-18 -4.03186e-19)
(0.0862591 -1.16737e-18 -8.60435e-19)
(0.0863083 5.50537e-19 -4.95174e-19)
(0.0863517 1.78245e-18 -4.03147e-19)
(0.0863891 2.43958e-18 8.96905e-20)
(0.0864205 2.2316e-18 3.60822e-19)
(0.0864459 2.13484e-18 9.12481e-19)
(0.086465 1.64376e-18 3.09693e-19)
(0.0864778 1.68996e-18 -5.002e-19)
(0.0864843 8.41543e-19 2.22276e-19)
(0.00343972 -1.68327e-16 -8.23038e-16)
(0.00940162 -6.85438e-16 -1.02446e-15)
(0.0150363 -7.2901e-16 -7.2927e-16)
(0.0203897 -6.63933e-16 -4.97008e-16)
(0.0254809 -5.68956e-16 -3.30825e-16)
(0.0303089 -4.76128e-16 -2.18869e-16)
(0.0348677 -3.97477e-16 -1.46811e-16)
(0.0391556 -3.34713e-16 -1.01399e-16)
(0.0431777 -2.85523e-16 -7.24601e-17)
(0.0469453 -2.46946e-16 -5.36476e-17)
(0.0504741 -2.16082e-16 -4.12502e-17)
(0.0537819 -1.90731e-16 -3.28237e-17)
(0.0568869 -1.69734e-16 -2.64882e-17)
(0.0598068 -1.52226e-16 -2.18293e-17)
(0.0625585 -1.3767e-16 -1.80878e-17)
(0.0651573 -1.25149e-16 -1.51513e-17)
(0.0676169 -1.14543e-16 -1.2569e-17)
(0.0699498 -1.05706e-16 -1.08531e-17)
(0.0721669 -9.7527e-17 -9.49583e-18)
(0.0742782 -9.02719e-17 -8.22173e-18)
(0.0762923 -8.38492e-17 -7.25961e-18)
(0.0782168 -7.8199e-17 -6.41659e-18)
(0.0800588 -7.34891e-17 -5.63534e-18)
(0.0818243 -6.95623e-17 -4.97865e-18)
(0.0835188 -6.59855e-17 -4.69103e-18)
(0.0851472 -6.23936e-17 -4.41505e-18)
(0.086714 -5.88542e-17 -4.21742e-18)
(0.0882232 -5.54694e-17 -3.85296e-18)
(0.0896783 -5.25218e-17 -2.93521e-18)
(0.0910826 -4.99918e-17 -2.73654e-18)
(0.0924392 -4.76815e-17 -2.6685e-18)
(0.0937507 -4.54351e-17 -2.95868e-18)
(0.0950197 -4.26993e-17 -3.2202e-18)
(0.0962484 -4.03217e-17 -2.5603e-18)
(0.0974389 -3.88826e-17 -1.90306e-18)
(0.0985932 -3.71402e-17 -2.06812e-18)
(0.099713 -3.53267e-17 -1.8647e-18)
(0.1008 -3.38117e-17 -1.46391e-18)
(0.101856 -3.23955e-17 -1.60606e-18)
(0.102882 -3.08108e-17 -1.98143e-18)
(0.103879 -2.91179e-17 -1.83599e-18)
(0.104849 -2.71691e-17 -2.29336e-18)
(0.105793 -2.53028e-17 -1.95373e-18)
(0.106712 -2.38156e-17 -1.55058e-18)
(0.107607 -2.22446e-17 -1.55163e-18)
(0.108479 -2.03286e-17 -1.65729e-18)
(0.109329 -1.91415e-17 -1.18239e-18)
(0.110157 -1.8857e-17 -7.13297e-19)
(0.110964 -1.84272e-17 -7.67916e-19)
(0.111752 -1.7716e-17 -8.55916e-19)
(0.112521 -1.65475e-17 -9.90777e-19)
(0.113271 -1.56997e-17 -9.55086e-19)
(0.114003 -1.51217e-17 -1.20028e-18)
(0.114717 -1.47524e-17 -1.13744e-18)
(0.115415 -1.44367e-17 -9.51172e-19)
(0.116097 -1.34073e-17 -1.6251e-18)
(0.116763 -1.27886e-17 -1.15962e-18)
(0.117414 -1.23386e-17 -1.11869e-18)
(0.118049 -1.15055e-17 -9.82033e-19)
(0.118671 -1.09498e-17 -7.79708e-19)
(0.119278 -1.11742e-17 -6.9705e-19)
(0.119872 -1.11752e-17 -2.04194e-18)
(0.120452 -1.00445e-17 -2.09238e-18)
(0.121019 -9.03681e-18 -1.1953e-18)
(0.121574 -8.45645e-18 -1.04214e-18)
(0.122116 -7.4641e-18 -1.2886e-18)
(0.122646 -6.84737e-18 -9.739e-19)
(0.123165 -6.63768e-18 -1.01425e-18)
(0.123672 -5.92179e-18 -1.20893e-18)
(0.124167 -5.65006e-18 -7.06919e-19)
(0.124652 -5.84279e-18 -2.40789e-19)
(0.125126 -6.54938e-18 6.49512e-19)
(0.125589 -7.16662e-18 4.61062e-19)
(0.126042 -6.8644e-18 6.71744e-20)
(0.126484 -7.07364e-18 6.40166e-19)
(0.126916 -8.12332e-18 1.05151e-18)
(0.127339 -8.59803e-18 4.50392e-19)
(0.127752 -8.19924e-18 -6.16772e-19)
(0.128155 -8.02936e-18 -7.01864e-19)
(0.128549 -8.81459e-18 9.29243e-20)
(0.128934 -9.26392e-18 -4.5713e-19)
(0.129309 -8.88294e-18 -7.95323e-19)
(0.129675 -8.04602e-18 -7.86961e-19)
(0.130033 -6.92207e-18 -1.08169e-18)
(0.130381 -6.30417e-18 -1.44818e-19)
(0.130721 -5.6474e-18 -2.91649e-19)
(0.131052 -4.62245e-18 -7.96294e-19)
(0.131375 -3.67856e-18 -5.35866e-19)
(0.131689 -3.58833e-18 4.38659e-20)
(0.131995 -5.00921e-18 9.97719e-19)
(0.132292 -6.86079e-18 8.55302e-19)
(0.132581 -7.89557e-18 1.97837e-19)
(0.132862 -8.71609e-18 5.47237e-19)
(0.133134 -9.35912e-18 8.02966e-19)
(0.133399 -9.96608e-18 2.0887e-19)
(0.133655 -9.41799e-18 -9.0987e-19)
(0.133903 -7.61474e-18 -1.92408e-18)
(0.134143 -6.80642e-18 -8.17177e-19)
(0.134375 -6.0491e-18 -2.21401e-19)
(0.1346 -5.50396e-18 -9.22707e-20)
(0.134815 -5.77054e-18 -6.52161e-19)
(0.135023 -5.18013e-18 -7.0661e-19)
(0.135223 -4.54224e-18 2.77639e-19)
(0.135415 -3.97821e-18 -9.04165e-19)
(0.135599 -2.94407e-18 -1.7233e-18)
(0.135774 -2.49986e-18 -8.68096e-19)
(0.135942 -2.04234e-18 -8.13189e-19)
(0.136101 -1.87906e-18 -8.47474e-19)
(0.136252 -1.99216e-18 -6.99796e-19)
(0.136395 -1.8002e-18 -3.87271e-19)
(0.13653 -1.98196e-18 -2.81794e-19)
(0.136656 -2.20428e-18 -3.90008e-19)
(0.136774 -5.85959e-19 -9.53779e-19)
(0.136884 2.68195e-19 -1.01183e-18)
(0.136985 -3.04048e-19 -2.63067e-19)
(0.137077 -3.62686e-19 -5.01729e-19)
(0.13716 4.51763e-19 -7.21499e-19)
(0.137235 2.19388e-18 -6.35471e-19)
(0.137301 3.60512e-18 -1.08362e-19)
(0.137358 4.04909e-18 9.45594e-19)
(0.137405 3.38747e-18 1.28602e-18)
(0.137444 2.82525e-18 1.04837e-18)
(0.137473 1.86425e-18 8.01017e-19)
(0.137492 1.65485e-18 2.29045e-19)
(0.137502 9.95946e-19 1.33003e-18)
(0.00459629 -6.61207e-17 -4.11787e-16)
(0.0126663 -3.74631e-16 -7.39607e-16)
(0.0203897 -4.96854e-16 -6.64288e-16)
(0.027758 -5.2845e-16 -5.28712e-16)
(0.0347574 -5.03622e-16 -3.95581e-16)
(0.0413667 -4.55317e-16 -2.88089e-16)
(0.0475696 -4.02273e-16 -2.09234e-16)
(0.0533652 -3.52777e-16 -1.53913e-16)
(0.0587677 -3.09472e-16 -1.1552e-16)
(0.0638013 -2.72704e-16 -8.85764e-17)
(0.0684949 -2.41686e-16 -6.98109e-17)
(0.0728789 -2.15035e-16 -5.62002e-17)
(0.0769825 -1.92363e-16 -4.58598e-17)
(0.0808329 -1.7309e-16 -3.81009e-17)
(0.0844548 -1.56538e-16 -3.19263e-17)
(0.0878702 -1.42201e-16 -2.69018e-17)
(0.0910986 -1.29968e-16 -2.29796e-17)
(0.0941572 -1.19677e-16 -1.99211e-17)
(0.0970612 -1.1014e-16 -1.74513e-17)
(0.099824 -1.01453e-16 -1.50594e-17)
(0.102457 -9.39897e-17 -1.30965e-17)
(0.104972 -8.73556e-17 -1.18272e-17)
(0.107376 -8.14862e-17 -1.04876e-17)
(0.10968 -7.67042e-17 -9.41287e-18)
(0.111889 -7.23067e-17 -8.56415e-18)
(0.11401 -6.788e-17 -7.56342e-18)
(0.11605 -6.36339e-17 -6.94358e-18)
(0.118013 -5.92622e-17 -6.59542e-18)
(0.119905 -5.56879e-17 -6.10843e-18)
(0.121729 -5.29575e-17 -5.61485e-18)
(0.123491 -5.03556e-17 -5.26556e-18)
(0.125193 -4.76399e-17 -5.44032e-18)
(0.126838 -4.4076e-17 -5.95126e-18)
(0.128431 -4.08056e-17 -4.8356e-18)
(0.129973 -3.91665e-17 -4.14765e-18)
(0.131467 -3.75203e-17 -3.96088e-18)
(0.132916 -3.5148e-17 -3.2152e-18)
(0.134321 -3.34313e-17 -2.5942e-18)
(0.135685 -3.21514e-17 -2.78191e-18)
(0.13701 -3.02805e-17 -3.11765e-18)
(0.138297 -2.84232e-17 -3.05954e-18)
(0.139548 -2.62296e-17 -3.0597e-18)
(0.140765 -2.38583e-17 -3.20854e-18)
(0.141948 -2.22968e-17 -2.41758e-18)
(0.1431 -2.09082e-17 -2.61724e-18)
(0.144222 -1.88421e-17 -2.35062e-18)
(0.145314 -1.74047e-17 -2.25748e-18)
(0.146379 -1.71968e-17 -1.55548e-18)
(0.147416 -1.67914e-17 -1.34179e-18)
(0.148427 -1.60545e-17 -1.28116e-18)
(0.149412 -1.48015e-17 -1.58785e-18)
(0.150374 -1.3824e-17 -1.64537e-18)
(0.151311 -1.31662e-17 -1.80146e-18)
(0.152226 -1.25086e-17 -2.29394e-18)
(0.153119 -1.22938e-17 -1.4944e-18)
(0.153991 -1.112e-17 -1.96135e-18)
(0.154842 -1.01332e-17 -1.40315e-18)
(0.155673 -9.79036e-18 -1.58212e-18)
(0.156485 -8.77934e-18 -1.51156e-18)
(0.157277 -8.04274e-18 -1.30851e-18)
(0.158051 -8.78172e-18 -1.18546e-18)
(0.158808 -8.84265e-18 -2.00965e-18)
(0.159547 -7.1066e-18 -2.53963e-18)
(0.160269 -6.14645e-18 -2.02792e-18)
(0.160974 -5.94971e-18 -1.47765e-18)
(0.161663 -5.03107e-18 -1.25808e-18)
(0.162337 -4.23114e-18 -1.22476e-18)
(0.162995 -4.123e-18 -1.5468e-18)
(0.163638 -3.58053e-18 -1.64307e-18)
(0.164267 -3.10424e-18 -1.28037e-18)
(0.164881 -2.99758e-18 -6.51266e-19)
(0.165481 -3.80703e-18 2.16509e-19)
(0.166068 -4.95924e-18 7.45305e-19)
(0.166641 -4.78279e-18 3.39639e-19)
(0.1672 -4.65886e-18 7.01702e-19)
(0.167747 -5.84925e-18 1.15789e-18)
(0.168281 -7.08323e-18 7.73236e-19)
(0.168802 -6.79763e-18 -1.09459e-18)
(0.169311 -5.7903e-18 -1.36329e-18)
(0.169808 -6.39566e-18 -6.45531e-19)
(0.170293 -7.00494e-18 -1.10396e-18)
(0.170766 -6.20713e-18 -1.46877e-18)
(0.171227 -5.68962e-18 -1.57536e-18)
(0.171677 -4.60812e-18 -1.82761e-18)
(0.172116 -3.67121e-18 -1.39701e-18)
(0.172543 -3.36221e-18 -7.2324e-19)
(0.172959 -2.40382e-18 -7.66221e-19)
(0.173365 -1.7412e-18 -6.74239e-19)
(0.173759 -1.58382e-18 -4.73443e-19)
(0.174143 -2.90163e-18 5.56145e-19)
(0.174516 -4.81591e-18 8.99177e-19)
(0.174879 -5.5726e-18 8.73605e-19)
(0.175231 -6.49567e-18 1.29366e-18)
(0.175573 -7.41639e-18 9.37124e-19)
(0.175904 -8.23014e-18 -1.83539e-19)
(0.176225 -7.87165e-18 -1.77408e-18)
(0.176536 -5.50225e-18 -2.69888e-18)
(0.176836 -3.98894e-18 -1.69874e-18)
(0.177126 -3.6142e-18 -2.08715e-19)
(0.177407 -3.54584e-18 -4.72935e-19)
(0.177677 -3.50575e-18 -1.28125e-18)
(0.177936 -2.50381e-18 -1.41356e-19)
(0.178186 -2.5409e-18 1.3192e-21)
(0.178426 -2.82916e-18 -7.4366e-19)
(0.178655 -1.1867e-18 -1.78354e-18)
(0.178874 -5.23597e-19 -1.06143e-18)
(0.179084 -6.81696e-19 -8.89947e-19)
(0.179282 -3.2176e-19 -1.33762e-18)
(0.179471 -2.22338e-19 -5.18403e-19)
(0.179649 -3.32752e-19 -5.49485e-20)
(0.179817 -7.24899e-19 -3.27294e-20)
(0.179975 -1.18768e-18 -4.52109e-19)
(0.180121 -9.20397e-20 -1.4721e-18)
(0.180258 1.04506e-18 -1.06725e-18)
(0.180384 7.05417e-19 -1.83629e-19)
(0.180498 2.02892e-19 4.6844e-19)
(0.180602 7.83141e-19 9.54843e-20)
(0.180696 2.69627e-18 -6.14072e-20)
(0.180777 4.25618e-18 9.76244e-19)
(0.180848 4.50171e-18 1.72201e-18)
(0.180908 3.51548e-18 1.63287e-18)
(0.180955 2.83179e-18 1.02382e-18)
(0.180991 1.96408e-18 1.41803e-18)
(0.181016 1.77059e-18 9.42183e-19)
(0.181028 1.16358e-18 2.54493e-18)
(0.00570022 -3.29422e-17 -2.51029e-16)
(0.0157642 -2.13986e-16 -5.5487e-16)
(0.0254809 -3.30594e-16 -5.69218e-16)
(0.0347574 -3.95299e-16 -5.03808e-16)
(0.0435135 -4.11067e-16 -4.11268e-16)
(0.0516958 -3.97582e-16 -3.2253e-16)
(0.0592899 -3.70314e-16 -2.49402e-16)
(0.0663148 -3.38131e-16 -1.93376e-16)
(0.0728104 -3.05661e-16 -1.51483e-16)
(0.0788247 -2.75671e-16 -1.20099e-16)
(0.0844071 -2.48674e-16 -9.67904e-17)
(0.0896038 -2.24039e-16 -7.90293e-17)
(0.0944566 -2.02501e-16 -6.53349e-17)
(0.0990023 -1.83741e-16 -5.46045e-17)
(0.103273 -1.67264e-16 -4.61245e-17)
(0.107297 -1.5286e-16 -3.92185e-17)
(0.111099 -1.40347e-16 -3.41189e-17)
(0.114699 -1.29436e-16 -2.96801e-17)
(0.118116 -1.19302e-16 -2.58817e-17)
(0.121366 -1.10066e-16 -2.25643e-17)
(0.124463 -1.02116e-16 -1.99917e-17)
(0.12742 -9.49697e-17 -1.81341e-17)
(0.130247 -8.85401e-17 -1.60709e-17)
(0.132954 -8.30857e-17 -1.45879e-17)
(0.135551 -7.79135e-17 -1.26643e-17)
(0.138044 -7.31247e-17 -1.14038e-17)
(0.140441 -6.87823e-17 -1.01886e-17)
(0.142748 -6.44611e-17 -9.67249e-18)
(0.14497 -6.04551e-17 -9.53983e-18)
(0.147114 -5.68744e-17 -8.8725e-18)
(0.149182 -5.38388e-17 -8.17744e-18)
(0.15118 -5.11002e-17 -7.71656e-18)
(0.153112 -4.7103e-17 -7.52596e-18)
(0.154981 -4.34241e-17 -7.10482e-18)
(0.15679 -4.14861e-17 -6.51003e-18)
(0.158543 -3.92939e-17 -5.84444e-18)
(0.160242 -3.68962e-17 -4.92547e-18)
(0.16189 -3.52894e-17 -4.29179e-18)
(0.163489 -3.39486e-17 -4.01322e-18)
(0.165041 -3.19556e-17 -4.18559e-18)
(0.166549 -2.98133e-17 -4.19393e-18)
(0.168014 -2.77245e-17 -3.87905e-18)
(0.169438 -2.51578e-17 -4.06411e-18)
(0.170824 -2.33735e-17 -3.49362e-18)
(0.172171 -2.1942e-17 -3.47589e-18)
(0.173483 -2.00855e-17 -2.65716e-18)
(0.17476 -1.87418e-17 -2.80411e-18)
(0.176004 -1.80894e-17 -2.05278e-18)
(0.177216 -1.75784e-17 -2.23049e-18)
(0.178396 -1.69005e-17 -2.55014e-18)
(0.179547 -1.5885e-17 -2.49849e-18)
(0.180669 -1.47533e-17 -2.69484e-18)
(0.181763 -1.41954e-17 -2.41868e-18)
(0.18283 -1.29579e-17 -3.02668e-18)
(0.183871 -1.21695e-17 -1.78362e-18)
(0.184886 -1.12529e-17 -2.3108e-18)
(0.185877 -1.05096e-17 -2.10981e-18)
(0.186845 -1.01476e-17 -2.11149e-18)
(0.187789 -8.94123e-18 -1.65292e-18)
(0.188711 -8.40167e-18 -1.35961e-18)
(0.189611 -8.82178e-18 -1.80864e-18)
(0.19049 -8.92335e-18 -1.76938e-18)
(0.191348 -7.58045e-18 -2.55876e-18)
(0.192186 -6.25032e-18 -2.95363e-18)
(0.193005 -5.63662e-18 -1.8257e-18)
(0.193805 -5.00617e-18 -1.1259e-18)
(0.194586 -4.75292e-18 -1.11263e-18)
(0.195349 -4.59063e-18 -1.62421e-18)
(0.196094 -3.76579e-18 -1.49624e-18)
(0.196822 -3.26225e-18 -1.20972e-18)
(0.197533 -3.29637e-18 -9.10432e-19)
(0.198227 -3.78628e-18 -7.31586e-19)
(0.198905 -4.80469e-18 8.09792e-20)
(0.199567 -4.92999e-18 3.70769e-19)
(0.200214 -4.77918e-18 5.5318e-19)
(0.200845 -5.89765e-18 4.17536e-19)
(0.201462 -7.44037e-18 3.86487e-19)
(0.202063 -7.26918e-18 -1.17409e-18)
(0.202651 -5.84478e-18 -1.41602e-18)
(0.203223 -6.19497e-18 -6.25391e-19)
(0.203782 -6.7558e-18 -1.36276e-18)
(0.204327 -6.08117e-18 -2.11816e-18)
(0.204859 -5.57506e-18 -2.67789e-18)
(0.205377 -4.58331e-18 -1.99821e-18)
(0.205881 -3.24412e-18 -2.4325e-18)
(0.206373 -2.40017e-18 -1.85614e-18)
(0.206852 -2.11233e-18 -7.50381e-19)
(0.207318 -1.99292e-18 -6.12408e-19)
(0.207771 -1.54388e-18 -6.6489e-19)
(0.208212 -2.36896e-18 1.99712e-19)
(0.20864 -4.18685e-18 1.58337e-18)
(0.209056 -4.95179e-18 1.78258e-18)
(0.20946 -6.0472e-18 1.68845e-18)
(0.209852 -7.28877e-18 7.38602e-19)
(0.210232 -8.17589e-18 -4.23522e-19)
(0.2106 -7.67188e-18 -1.60604e-18)
(0.210956 -4.9542e-18 -2.38178e-18)
(0.2113 -3.09252e-18 -1.72551e-18)
(0.211633 -2.98947e-18 -1.41579e-19)
(0.211953 -3.38881e-18 -4.11194e-19)
(0.212263 -2.76974e-18 -9.35776e-19)
(0.21256 -2.08182e-18 3.96959e-19)
(0.212846 -2.48769e-18 -6.0133e-19)
(0.213119 -2.57035e-18 -1.24875e-18)
(0.213382 -1.36889e-18 -1.63858e-18)
(0.213632 -5.68323e-19 -1.68547e-18)
(0.213871 -6.76651e-19 -1.4006e-18)
(0.214099 -9.84896e-20 -1.31396e-18)
(0.214314 7.71467e-20 -2.14197e-19)
(0.214517 -3.66525e-19 2.0355e-19)
(0.214709 -8.87788e-19 5.44887e-19)
(0.214889 -1.61367e-18 -5.38874e-19)
(0.215057 -3.53842e-19 -1.88339e-18)
(0.215212 1.03129e-18 -1.59526e-18)
(0.215356 8.2e-19 -1.68948e-19)
(0.215487 3.68986e-19 9.16161e-19)
(0.215605 7.16375e-19 6.87473e-19)
(0.215712 2.6111e-18 3.82471e-19)
(0.215805 4.06714e-18 1.91702e-18)
(0.215886 4.00022e-18 2.25724e-18)
(0.215953 2.95894e-18 2.21462e-18)
(0.216008 2.6288e-18 7.11276e-19)
(0.216049 2.02218e-18 1.38161e-18)
(0.216077 1.95917e-18 1.0996e-18)
(0.216091 1.26003e-18 3.07076e-18)
(0.00675666 -1.51801e-17 -1.66493e-16)
(0.0187052 -1.24964e-16 -4.27051e-16)
(0.0303089 -2.18543e-16 -4.76295e-16)
(0.0413667 -2.87741e-16 -4.55395e-16)
(0.0516958 -3.22315e-16 -3.97688e-16)
(0.0612 -3.30668e-16 -3.30803e-16)
(0.069888 -3.23083e-16 -2.69377e-16)
(0.0778297 -3.06675e-16 -2.18114e-16)
(0.085112 -2.85748e-16 -1.77137e-16)
(0.0918181 -2.6376e-16 -1.44931e-16)
(0.0980214 -2.42463e-16 -1.19361e-16)
(0.103785 -2.22102e-16 -9.93106e-17)
(0.109161 -2.03421e-16 -8.33583e-17)
(0.114196 -1.86668e-16 -7.0451e-17)
(0.118926 -1.71616e-16 -6.00947e-17)
(0.123384 -1.58285e-16 -5.14728e-17)
(0.127598 -1.4632e-16 -4.50756e-17)
(0.13159 -1.35417e-16 -3.9393e-17)
(0.135382 -1.25424e-16 -3.44198e-17)
(0.13899 -1.1638e-16 -3.00426e-17)
(0.142431 -1.08608e-16 -2.66656e-17)
(0.145718 -1.01187e-16 -2.40128e-17)
(0.148862 -9.43857e-17 -2.18372e-17)
(0.151875 -8.8503e-17 -1.93646e-17)
(0.154766 -8.32498e-17 -1.72143e-17)
(0.157543 -7.84112e-17 -1.56759e-17)
(0.160214 -7.38959e-17 -1.42496e-17)
(0.162786 -6.97407e-17 -1.32962e-17)
(0.165264 -6.54207e-17 -1.25232e-17)
(0.167655 -6.14278e-17 -1.17978e-17)
(0.169963 -5.80248e-17 -1.07808e-17)
(0.172194 -5.48362e-17 -1.01841e-17)
(0.17435 -5.12973e-17 -9.51826e-18)
(0.176437 -4.77241e-17 -9.49265e-18)
(0.178458 -4.50612e-17 -8.71543e-18)
(0.180415 -4.26538e-17 -7.40667e-18)
(0.182313 -4.01364e-17 -6.81649e-18)
(0.184154 -3.82577e-17 -5.95432e-18)
(0.18594 -3.69159e-17 -5.7809e-18)
(0.187675 -3.50595e-17 -6.07501e-18)
(0.189359 -3.27265e-17 -5.82282e-18)
(0.190996 -3.05658e-17 -5.37097e-18)
(0.192588 -2.80599e-17 -5.23179e-18)
(0.194136 -2.61199e-17 -4.90846e-18)
(0.195641 -2.4374e-17 -4.27714e-18)
(0.197107 -2.26053e-17 -2.96264e-18)
(0.198533 -2.13559e-17 -3.05607e-18)
(0.199922 -2.08661e-17 -2.98839e-18)
(0.201275 -2.06793e-17 -3.29674e-18)
(0.202594 -1.95518e-17 -3.91629e-18)
(0.203878 -1.83378e-17 -3.58778e-18)
(0.205131 -1.69433e-17 -3.46915e-18)
(0.206351 -1.61334e-17 -3.42922e-18)
(0.207542 -1.48784e-17 -2.54041e-18)
(0.208703 -1.43279e-17 -2.59654e-18)
(0.209836 -1.37541e-17 -3.00368e-18)
(0.210941 -1.24308e-17 -2.88276e-18)
(0.21202 -1.1705e-17 -2.90719e-18)
(0.213072 -1.05637e-17 -1.95692e-18)
(0.214099 -1.03239e-17 -1.21771e-18)
(0.215102 -1.0566e-17 -1.55507e-18)
(0.216081 -1.05586e-17 -1.86493e-18)
(0.217037 -9.7905e-18 -2.32127e-18)
(0.21797 -8.12775e-18 -2.51594e-18)
(0.218881 -7.08697e-18 -2.09779e-18)
(0.21977 -6.8916e-18 -1.48155e-18)
(0.220639 -6.55492e-18 -1.69602e-18)
(0.221487 -6.14162e-18 -1.80831e-18)
(0.222316 -5.54565e-18 -1.94451e-18)
(0.223124 -5.12783e-18 -1.40788e-18)
(0.223914 -5.16294e-18 -1.27499e-18)
(0.224685 -5.43394e-18 -1.04865e-18)
(0.225438 -6.03149e-18 -7.0118e-19)
(0.226173 -6.11211e-18 -2.61522e-19)
(0.22689 -6.20766e-18 4.42741e-19)
(0.227591 -7.15505e-18 2.63605e-19)
(0.228274 -8.63776e-18 -5.18521e-19)
(0.228941 -8.66401e-18 -6.98509e-19)
(0.229591 -6.93233e-18 -9.06998e-19)
(0.230226 -7.30942e-18 4.63763e-19)
(0.230845 -8.24731e-18 -9.96123e-19)
(0.231448 -7.49594e-18 -2.53134e-18)
(0.232036 -6.35087e-18 -3.63728e-18)
(0.232609 -5.4395e-18 -3.45333e-18)
(0.233167 -4.58628e-18 -3.47235e-18)
(0.233711 -2.89899e-18 -3.78587e-18)
(0.23424 -2.46224e-18 -1.60945e-18)
(0.234755 -3.20823e-18 -9.06369e-19)
(0.235256 -2.61054e-18 -8.54193e-19)
(0.235742 -2.67904e-18 6.90578e-19)
(0.236215 -4.34408e-18 2.06951e-18)
(0.236675 -5.51389e-18 2.30749e-18)
(0.23712 -6.79466e-18 1.40574e-18)
(0.237553 -7.97961e-18 5.2883e-19)
(0.237972 -8.48792e-18 -1.26574e-19)
(0.238377 -7.94073e-18 -8.41064e-19)
(0.23877 -5.587e-18 -1.74402e-18)
(0.239149 -3.61649e-18 -7.07577e-19)
(0.239515 -3.55755e-18 3.83157e-20)
(0.239868 -4.04296e-18 -2.81123e-19)
(0.240209 -3.10184e-18 -8.19284e-19)
(0.240536 -2.72852e-18 5.12213e-19)
(0.24085 -3.54212e-18 -6.5689e-19)
(0.241152 -3.43018e-18 -9.58788e-19)
(0.241441 -2.28849e-18 -1.9515e-18)
(0.241716 -1.55435e-18 -1.98001e-18)
(0.241979 -1.38648e-18 -1.89364e-18)
(0.242229 -6.20255e-19 -1.29435e-18)
(0.242466 -4.24045e-19 -5.4583e-19)
(0.242689 -7.90675e-19 2.78769e-19)
(0.2429 -1.70321e-18 1.28032e-18)
(0.243097 -2.74286e-18 -7.54701e-19)
(0.243282 -1.49111e-18 -1.73302e-18)
(0.243453 5.51604e-19 -2.14249e-18)
(0.24361 9.57383e-19 -5.38503e-19)
(0.243754 2.57488e-19 -3.05887e-19)
(0.243884 2.65846e-19 5.13684e-19)
(0.244001 2.29725e-18 8.98267e-19)
(0.244104 3.79453e-18 2.22672e-18)
(0.244192 3.49995e-18 2.64714e-18)
(0.244266 2.08917e-18 2.97636e-18)
(0.244326 1.94126e-18 3.65444e-19)
(0.244372 2.02133e-18 1.28495e-18)
(0.244402 2.15663e-18 1.27988e-18)
(0.244417 1.42287e-18 3.32776e-18)
(0.00776562 -6.58855e-18 -1.16504e-16)
(0.021491 -7.53304e-17 -3.37578e-16)
(0.0348677 -1.46457e-16 -3.97596e-16)
(0.0475696 -2.08886e-16 -4.02325e-16)
(0.0592899 -2.49229e-16 -3.70344e-16)
(0.069888 -2.69266e-16 -3.22855e-16)
(0.0794183 -2.7442e-16 -2.7427e-16)
(0.0880251 -2.6965e-16 -2.30261e-16)
(0.0958567 -2.58849e-16 -1.9282e-16)
(0.103037 -2.4478e-16 -1.62084e-16)
(0.109664 -2.29467e-16 -1.36528e-16)
(0.115816 -2.13837e-16 -1.15714e-16)
(0.121555 -1.98667e-16 -9.86946e-17)
(0.126932 -1.84551e-16 -8.48378e-17)
(0.131989 -1.71417e-16 -7.27797e-17)
(0.13676 -1.59773e-16 -6.32378e-17)
(0.141274 -1.48962e-16 -5.52936e-17)
(0.145556 -1.38599e-16 -4.84656e-17)
(0.149627 -1.29013e-16 -4.25457e-17)
(0.153506 -1.20422e-16 -3.75532e-17)
(0.15721 -1.13034e-16 -3.29432e-17)
(0.160751 -1.06156e-16 -2.95523e-17)
(0.164142 -9.93251e-17 -2.71204e-17)
(0.167394 -9.31224e-17 -2.44658e-17)
(0.170517 -8.80012e-17 -2.20506e-17)
(0.17352 -8.32166e-17 -1.99787e-17)
(0.17641 -7.86709e-17 -1.83634e-17)
(0.179195 -7.43316e-17 -1.7053e-17)
(0.181881 -7.0109e-17 -1.59057e-17)
(0.184473 -6.59537e-17 -1.462e-17)
(0.186977 -6.23517e-17 -1.37266e-17)
(0.189398 -5.91634e-17 -1.30786e-17)
(0.19174 -5.56794e-17 -1.25755e-17)
(0.194007 -5.20432e-17 -1.24118e-17)
(0.196204 -4.86129e-17 -1.09332e-17)
(0.198333 -4.62361e-17 -9.27144e-18)
(0.200397 -4.39792e-17 -8.67295e-18)
(0.2024 -4.20129e-17 -8.17069e-18)
(0.204345 -4.08197e-17 -8.31065e-18)
(0.206233 -3.86576e-17 -8.7301e-18)
(0.208068 -3.59664e-17 -7.88559e-18)
(0.209851 -3.38972e-17 -7.0562e-18)
(0.211585 -3.15645e-17 -6.34538e-18)