/*--------------------------------*- C++ -*----------------------------------*\
| =========                 |                                                 |
| \\      /  F ield         | OpenFOAM: The Open Source CFD Toolbox           |
|  \\    /   O peration     | Version:  4.x                                   |
|   \\  /    A nd           | Web:      www.OpenFOAM.org                      |
|    \\/     M anipulation  |                                                 |
\*---------------------------------------------------------------------------*/
FoamFile
{
    version     2.0;
    format      ascii;
    class       volScalarField;
    location    "98.28";
    object      epsilon;
}
// * * * * * * * * * * * * * * * * * * * * * * * * * * * * * * * * * * * * * //

dimensions      [0 2 -3 0 0 0 0];

internalField   nonuniform List<scalar> 
15625
(
0.0014194
0.00169106
0.00226831
0.00312652
0.00421804
0.0054852
0.00687182
0.00833004
0.0098226
0.0113224
0.0128108
0.0142759
0.0157103
0.0171101
0.0184733
0.0197996
0.0210893
0.0223434
0.023563
0.0247494
0.0259041
0.0270284
0.0281236
0.029191
0.0302318
0.0312471
0.032238
0.0332056
0.0341507
0.0350743
0.0359772
0.0368602
0.0377241
0.0385694
0.039397
0.0402074
0.0410011
0.0417788
0.042541
0.0432881
0.0440206
0.0447389
0.0454435
0.0461348
0.0468131
0.0474788
0.0481322
0.0487736
0.0494034
0.0500218
0.0506291
0.0512256
0.0518114
0.0523869
0.0529522
0.0535076
0.0540532
0.0545893
0.055116
0.0556335
0.0561419
0.0566415
0.0571323
0.0576145
0.0580883
0.0585537
0.0590108
0.0594598
0.0599008
0.0603338
0.060759
0.0611764
0.0615862
0.0619883
0.0623829
0.06277
0.0631497
0.063522
0.0638871
0.0642448
0.0645953
0.0649386
0.0652747
0.0656037
0.0659255
0.0662403
0.066548
0.0668485
0.067142
0.0674284
0.0677078
0.06798
0.0682452
0.0685033
0.0687542
0.068998
0.0692346
0.069464
0.0696862
0.0699011
0.0701087
0.070309
0.0705018
0.0706872
0.0708651
0.0710355
0.0711982
0.0713532
0.0715004
0.0716399
0.0717713
0.0718948
0.0720102
0.0721174
0.0722164
0.0723069
0.072389
0.0724624
0.0725272
0.0725831
0.07263
0.0726678
0.0726964
0.0727156
0.0727253
0.00169106
0.00120315
0.00121476
0.00146079
0.00183611
0.00228743
0.00278219
0.00329864
0.00382205
0.00434272
0.00485453
0.00535388
0.00583891
0.00630885
0.00676361
0.00720351
0.00762911
0.00804106
0.00844005
0.00882676
0.00920188
0.00956603
0.00991979
0.0102637
0.0105983
0.0109241
0.0112415
0.0115508
0.0118525
0.0121469
0.0124344
0.0127152
0.0129895
0.0132578
0.0135202
0.0137769
0.0140281
0.0142741
0.014515
0.014751
0.0149823
0.015209
0.0154313
0.0156493
0.0158631
0.0160729
0.0162787
0.0164807
0.016679
0.0168737
0.0170648
0.0172525
0.0174368
0.0176179
0.0177957
0.0179704
0.0181421
0.0183107
0.0184763
0.0186391
0.018799
0.0189561
0.0191105
0.0192621
0.0194111
0.0195575
0.0197013
0.0198425
0.0199812
0.0201175
0.0202512
0.0203826
0.0205115
0.0206381
0.0207623
0.0208841
0.0210036
0.0211208
0.0212357
0.0213484
0.0214588
0.0215669
0.0216727
0.0217764
0.0218777
0.0219769
0.0220738
0.0221686
0.0222611
0.0223513
0.0224394
0.0225252
0.0226088
0.0226902
0.0227693
0.0228462
0.0229208
0.0229932
0.0230632
0.023131
0.0231965
0.0232597
0.0233206
0.0233791
0.0234352
0.023489
0.0235403
0.0235893
0.0236358
0.0236798
0.0237213
0.0237603
0.0237967
0.0238306
0.0238618
0.0238904
0.0239163
0.0239395
0.0239599
0.0239776
0.0239924
0.0240044
0.0240134
0.0240195
0.0240225
0.00226831
0.00121476
0.000908124
0.000901645
0.00103137
0.00122844
0.00145987
0.00170794
0.00196242
0.00221718
0.00246859
0.00271462
0.00295417
0.0031868
0.00341241
0.00363114
0.00384323
0.00404898
0.0042487
0.00444272
0.00463135
0.00481487
0.00499357
0.00516768
0.00533745
0.00550309
0.0056648
0.00582276
0.00597714
0.0061281
0.00627578
0.00642032
0.00656184
0.00670046
0.0068363
0.00696944
0.00709999
0.00722803
0.00735365
0.00747693
0.00759794
0.00771675
0.00783341
0.00794801
0.00806058
0.0081712
0.0082799
0.00838673
0.00849175
0.00859499
0.0086965
0.00879631
0.00889446
0.00899098
0.00908591
0.00917928
0.00927112
0.00936144
0.00945029
0.00953768
0.00962364
0.00970818
0.00979133
0.00987311
0.00995353
0.0100326
0.0101104
0.0101868
0.010262
0.0103359
0.0104085
0.0104798
0.0105499
0.0106188
0.0106864
0.0107528
0.010818
0.010882
0.0109447
0.0110063
0.0110667
0.0111258
0.0111838
0.0112406
0.0112962
0.0113506
0.0114038
0.0114558
0.0115067
0.0115563
0.0116048
0.011652
0.011698
0.0117429
0.0117865
0.0118289
0.01187
0.01191
0.0119487
0.0119861
0.0120223
0.0120572
0.0120909
0.0121232
0.0121543
0.012184
0.0122125
0.0122395
0.0122653
0.0122897
0.0123127
0.0123343
0.0123545
0.0123732
0.0123906
0.0124064
0.0124208
0.0124337
0.012445
0.0124548
0.012463
0.0124697
0.0124747
0.012478
0.0124797
0.00312652
0.00146079
0.000901645
0.000751398
0.000772065
0.000871089
0.00100783
0.00116267
0.00132542
0.00149055
0.00165498
0.00181699
0.00197569
0.00213064
0.00228168
0.00242881
0.00257213
0.00271176
0.00284788
0.00298063
0.00311018
0.00323668
0.00336028
0.00348111
0.00359929
0.00371494
0.00382818
0.00393909
0.00404777
0.00415431
0.00425878
0.00436127
0.00446183
0.00456054
0.00465745
0.00475262
0.00484611
0.00493796
0.00502822
0.00511694
0.00520416
0.00528991
0.00537424
0.00545717
0.00553875
0.00561899
0.00569794
0.00577563
0.00585206
0.00592728
0.00600131
0.00607416
0.00614587
0.00621644
0.0062859
0.00635427
0.00642156
0.00648779
0.00655298
0.00661714
0.00668028
0.00674241
0.00680356
0.00686372
0.00692292
0.00698115
0.00703844
0.00709478
0.00715019
0.00720467
0.00725823
0.00731088
0.00736263
0.00741347
0.00746341
0.00751246
0.00756063
0.0076079
0.0076543
0.00769981
0.00774445
0.0077882
0.00783109
0.00787309
0.00791422
0.00795448
0.00799386
0.00803236
0.00806998
0.00810672
0.00814258
0.00817755
0.00821163
0.00824482
0.00827711
0.0083085
0.00833899
0.00836856
0.00839721
0.00842494
0.00845174
0.0084776
0.00850252
0.00852648
0.00854949
0.00857152
0.00859257
0.00861264
0.0086317
0.00864976
0.00866679
0.0086828
0.00869775
0.00871165
0.00872448
0.00873622
0.00874687
0.0087564
0.0087648
0.00877205
0.00877814
0.00878305
0.00878677
0.00878926
0.00879052
0.00421804
0.00183611
0.00103137
0.000772065
0.000727007
0.000774859
0.000865229
0.000975357
0.0010943
0.00121653
0.00133916
0.00146067
0.00158024
0.0016975
0.00181226
0.0019245
0.00203424
0.00214157
0.00224655
0.0023493
0.0024499
0.00254844
0.002645
0.00273968
0.00283254
0.00292365
0.00301308
0.00310088
0.00318711
0.00327182
0.00335506
0.00343688
0.00351731
0.0035964
0.00367417
0.00375067
0.00382593
0.00389998
0.00397284
0.00404455
0.00411512
0.00418459
0.00425298
0.0043203
0.00438659
0.00445185
0.00451611
0.00457939
0.0046417
0.00470306
0.00476348
0.00482298
0.00488157
0.00493927
0.00499608
0.00505203
0.00510712
0.00516136
0.00521476
0.00526733
0.00531909
0.00537003
0.00542017
0.00546952
0.00551808
0.00556586
0.00561287
0.0056591
0.00570458
0.0057493
0.00579327
0.00583649
0.00587896
0.0059207
0.0059617
0.00600196
0.0060415
0.0060803
0.00611838
0.00615574
0.00619237
0.00622827
0.00626346
0.00629793
0.00633167
0.00636469
0.00639699
0.00642857
0.00645942
0.00648954
0.00651894
0.00654761
0.00657554
0.00660274
0.0066292
0.00665492
0.00667989
0.00670411
0.00672758
0.00675028
0.00677223
0.0067934
0.0068138
0.00683341
0.00685224
0.00687027
0.00688749
0.00690391
0.0069195
0.00693427
0.0069482
0.00696129
0.00697352
0.00698489
0.00699537
0.00700498
0.00701368
0.00702147
0.00702833
0.00703426
0.00703924
0.00704325
0.00704629
0.00704833
0.00704935
0.0054852
0.00228743
0.00122844
0.000871089
0.000774859
0.000786317
0.00084498
0.000925046
0.00101479
0.00110857
0.00120356
0.0012983
0.00139201
0.00148433
0.00157507
0.00166417
0.00175162
0.00183745
0.00192171
0.00200445
0.00208573
0.00216559
0.00224409
0.00232127
0.00239718
0.00247187
0.00254536
0.00261769
0.00268889
0.00275899
0.00282803
0.00289602
0.00296299
0.00302896
0.00309396
0.003158
0.00322109
0.00328327
0.00334454
0.00340493
0.00346444
0.00352309
0.00358089
0.00363786
0.00369401
0.00374935
0.00380389
0.00385764
0.00391062
0.00396283
0.00401428
0.00406498
0.00411494
0.00416417
0.00421267
0.00426046
0.00430753
0.0043539
0.00439958
0.00444457
0.00448887
0.00453249
0.00457543
0.00461771
0.00465933
0.00470028
0.00474058
0.00478023
0.00481923
0.00485759
0.0048953
0.00493238
0.00496883
0.00500464
0.00503982
0.00507437
0.0051083
0.0051416
0.00517427
0.00520633
0.00523776
0.00526857
0.00529876
0.00532833
0.00535728
0.00538561
0.00541331
0.0054404
0.00546686
0.00549269
0.0055179
0.00554248
0.00556642
0.00558974
0.00561242
0.00563446
0.00565586
0.00567661
0.00569671
0.00571617
0.00573496
0.00575309
0.00577056
0.00578735
0.00580347
0.0058189
0.00583365
0.0058477
0.00586105
0.00587368
0.0058856
0.0058968
0.00590726
0.00591699
0.00592596
0.00593417
0.00594161
0.00594827
0.00595414
0.00595921
0.00596347
0.0059669
0.0059695
0.00597124
0.00597212
0.00687182
0.00278219
0.00145987
0.00100783
0.000865229
0.00084498
0.000876877
0.000932324
0.000998765
0.00107029
0.00114395
0.00121822
0.00129229
0.00136573
0.00143832
0.00150994
0.00158056
0.00165015
0.00171874
0.00178634
0.00185298
0.00191868
0.00198346
0.00204735
0.00211038
0.00217256
0.00223391
0.00229446
0.0023542
0.00241317
0.00247137
0.00252882
0.00258553
0.00264151
0.00269676
0.0027513
0.00280514
0.00285829
0.00291075
0.00296253
0.00301363
0.00306407
0.00311386
0.00316299
0.00321147
0.00325931
0.00330652
0.00335309
0.00339904
0.00344437
0.00348908
0.00353318
0.00357668
0.00361957
0.00366186
0.00370356
0.00374466
0.00378518
0.00382511
0.00386446
0.00390323
0.00394143
0.00397906
0.00401611
0.0040526
0.00408853
0.00412389
0.0041587
0.00419294
0.00422663
0.00425977
0.00429235
0.00432438
0.00435587
0.0043868
0.00441719
0.00444703
0.00447632
0.00450507
0.00453327
0.00456093
0.00458804
0.00461461
0.00464064
0.00466611
0.00469105
0.00471543
0.00473927
0.00476256
0.00478529
0.00480748
0.00482911
0.00485019
0.00487071
0.00489066
0.00491006
0.00492889
0.00494715
0.00496484
0.00498195
0.00499848
0.00501443
0.0050298
0.00504457
0.00505874
0.00507232
0.00508528
0.00509764
0.00510937
0.00512048
0.00513096
0.00514081
0.00515001
0.00515855
0.00516644
0.00517365
0.0051802
0.00518605
0.00519121
0.00519567
0.00519941
0.00520242
0.0052047
0.00520623
0.00520701
0.00833004
0.00329864
0.00170794
0.00116267
0.000975357
0.000925046
0.000932324
0.000965918
0.00101232
0.00106517
0.00112126
0.0011789
0.00123713
0.00129545
0.00135354
0.00141123
0.00146844
0.00152512
0.00158122
0.00163675
0.00169171
0.00174609
0.0017999
0.00185315
0.00190584
0.00195797
0.00200957
0.00206062
0.00211114
0.00216112
0.00221058
0.00225951
0.00230792
0.00235581
0.00240318
0.00245004
0.00249639
0.00254222
0.00258755
0.00263236
0.00267667
0.00272047
0.00276377
0.00280657
0.00284886
0.00289065
0.00293194
0.00297273
0.00301302
0.00305282
0.00309212
0.00313092
0.00316923
0.00320704
0.00324436
0.0032812
0.00331754
0.00335338
0.00338875
0.00342362
0.003458
0.0034919
0.00352531
0.00355824
0.00359068
0.00362264
0.00365411
0.0036851
0.00371561
0.00374564
0.00377518
0.00380424
0.00383283
0.00386093
0.00388855
0.00391569
0.00394235
0.00396853
0.00399422
0.00401944
0.00404417
0.00406842
0.00409219
0.00411547
0.00413827
0.00416059
0.00418241
0.00420375
0.0042246
0.00424496
0.00426482
0.00428419
0.00430306
0.00432144
0.00433931
0.00435668
0.00437354
0.0043899
0.00440574
0.00442107
0.00443588
0.00445016
0.00446392
0.00447715
0.00448985
0.004502
0.00451362
0.00452468
0.00453519
0.00454514
0.00455453
0.00456334
0.00457158
0.00457923
0.00458629
0.00459275
0.00459861
0.00460385
0.00460847
0.00461246
0.00461581
0.00461851
0.00462055
0.00462193
0.00462262
0.0098226
0.00382205
0.00196242
0.00132542
0.0010943
0.00101479
0.000998765
0.00101232
0.00104087
0.00107748
0.00111857
0.00116218
0.00120721
0.001253
0.00129914
0.00134539
0.00139161
0.00143768
0.00148356
0.0015292
0.00157457
0.00161965
0.00166444
0.00170891
0.00175308
0.00179692
0.00184044
0.00188363
0.00192649
0.00196901
0.0020112
0.00205304
0.00209453
0.00213567
0.00217647
0.0022169
0.00225698
0.00229669
0.00233604
0.00237502
0.00241363
0.00245187
0.00248973
0.00252722
0.00256432
0.00260104
0.00263737
0.00267332
0.00270887
0.00274404
0.00277881
0.00281318
0.00284716
0.00288074
0.00291391
0.00294669
0.00297906
0.00301103
0.00304259
0.00307374
0.00310448
0.00313482
0.00316474
0.00319425
0.00322335
0.00325204
0.00328031
0.00330816
0.0033356
0.00336262
0.00338922
0.0034154
0.00344116
0.0034665
0.00349141
0.00351591
0.00353998
0.00356362
0.00358684
0.00360963
0.00363199
0.00365393
0.00367543
0.0036965
0.00371713
0.00373733
0.0037571
0.00377643
0.00379531
0.00381376
0.00383176
0.00384932
0.00386642
0.00388308
0.00389929
0.00391504
0.00393033
0.00394517
0.00395954
0.00397344
0.00398687
0.00399983
0.00401232
0.00402432
0.00403584
0.00404687
0.00405741
0.00406745
0.00407699
0.00408602
0.00409453
0.00410253
0.00411001
0.00411695
0.00412336
0.00412923
0.00413454
0.0041393
0.00414349
0.00414711
0.00415015
0.0041526
0.00415446
0.0041557
0.00415633
0.0113224
0.00434272
0.00221718
0.00149055
0.00121653
0.00110857
0.00107029
0.00106517
0.00107748
0.00109961
0.00112755
0.00115904
0.00119277
0.00122791
0.00126397
0.0013006
0.0013376
0.00137481
0.00141213
0.00144949
0.00148684
0.00152415
0.00156137
0.0015985
0.0016355
0.00167237
0.0017091
0.00174566
0.00178205
0.00181826
0.00185428
0.00189011
0.00192573
0.00196113
0.00199632
0.00203128
0.00206601
0.00210049
0.00213473
0.00216872
0.00220246
0.00223593
0.00226913
0.00230206
0.0023347
0.00236707
0.00239915
0.00243093
0.00246242
0.00249361
0.00252449
0.00255506
0.00258532
0.00261526
0.00264489
0.00267418
0.00270316
0.0027318
0.0027601
0.00278808
0.00281571
0.002843
0.00286995
0.00289655
0.0029228
0.0029487
0.00297424
0.00299943
0.00302426
0.00304873
0.00307283
0.00309658
0.00311995
0.00314296
0.0031656
0.00318786
0.00320975
0.00323127
0.0032524
0.00327316
0.00329354
0.00331353
0.00333314
0.00335236
0.00337119
0.00338963
0.00340768
0.00342533
0.00344259
0.00345944
0.0034759
0.00349195
0.0035076
0.00352284
0.00353766
0.00355208
0.00356608
0.00357965
0.00359281
0.00360554
0.00361784
0.00362971
0.00364115
0.00365215
0.0036627
0.00367281
0.00368246
0.00369166
0.0037004
0.00370868
0.00371648
0.00372382
0.00373067
0.00373703
0.00374291
0.00374829
0.00375316
0.00375752
0.00376136
0.00376468
0.00376747
0.00376972
0.00377142
0.00377256
0.00377313
0.0128108
0.00485453
0.00246859
0.00165498
0.00133916
0.00120356
0.00114395
0.00112126
0.00111857
0.00112755
0.00114372
0.0011645
0.00118835
0.00121427
0.00124164
0.00127003
0.00129915
0.00132881
0.00135886
0.00138919
0.00141974
0.00145043
0.00148124
0.00151211
0.00154302
0.00157395
0.00160487
0.00163577
0.00166663
0.00169744
0.00172818
0.00175883
0.0017894
0.00181987
0.00185022
0.00188045
0.00191055
0.00194051
0.00197033
0.00199999
0.00202948
0.0020588
0.00208795
0.00211691
0.00214568
0.00217425
0.00220261
0.00223076
0.0022587
0.00228641
0.00231389
0.00234114
0.00236815
0.00239491
0.00242142
0.00244768
0.00247368
0.00249941
0.00252488
0.00255007
0.00257499
0.00259962
0.00262397
0.00264803
0.0026718
0.00269527
0.00271845
0.00274132
0.00276388
0.00278614
0.00280808
0.00282971
0.00285102
0.002872
0.00289267
0.00291301
0.00293302
0.0029527
0.00297204
0.00299105
0.00300971
0.00302804
0.00304602
0.00306366
0.00308094
0.00309788
0.00311446
0.00313068
0.00314655
0.00316205
0.00317719
0.00319196
0.00320637
0.0032204
0.00323406
0.00324734
0.00326024
0.00327275
0.00328488
0.00329662
0.00330797
0.00331892
0.00332947
0.00333961
0.00334935
0.00335868
0.00336759
0.00337609
0.00338416
0.0033918
0.00339901
0.00340578
0.00341211
0.00341799
0.00342342
0.00342839
0.00343289
0.00343692
0.00344047
0.00344354
0.00344611
0.00344819
0.00344976
0.00345081
0.00345134
0.0142759
0.00535388
0.00271462
0.00181699
0.00146067
0.0012983
0.00121822
0.0011789
0.00116218
0.00115904
0.0011645
0.00117566
0.0011907
0.00120849
0.00122824
0.00124944
0.00127173
0.00129485
0.00131862
0.0013429
0.00136759
0.0013926
0.00141788
0.00144338
0.00146905
0.00149486
0.00152079
0.0015468
0.00157289
0.00159902
0.00162518
0.00165136
0.00167753
0.0017037
0.00172985
0.00175595
0.00178202
0.00180802
0.00183396
0.00185982
0.0018856
0.00191128
0.00193685
0.00196232
0.00198767
0.00201289
0.00203797
0.00206292
0.00208771
0.00211235
0.00213682
0.00216112
0.00218525
0.0022092
0.00223295
0.00225652
0.00227988
0.00230303
0.00232598
0.0023487
0.00237121
0.00239349
0.00241553
0.00243734
0.00245891
0.00248023
0.0025013
0.00252212
0.00254268
0.00256298
0.00258301
0.00260277
0.00262225
0.00264146
0.00266039
0.00267903
0.00269738
0.00271544
0.00273321
0.00275068
0.00276785
0.00278471
0.00280127
0.00281752
0.00283345
0.00284907
0.00286437
0.00287935
0.002894
0.00290832
0.00292232
0.00293598
0.0029493
0.00296229
0.00297493
0.00298723
0.00299917
0.00301077
0.00302201
0.00303289
0.00304341
0.00305357
0.00306336
0.00307277
0.00308181
0.00309047
0.00309875
0.00310663
0.00311413
0.00312123
0.00312792
0.00313421
0.00314009
0.00314556
0.0031506
0.00315522
0.0031594
0.00316315
0.00316645
0.0031693
0.0031717
0.00317363
0.00317509
0.00317607
0.00317656
0.0157103
0.00583891
0.00295417
0.00197569
0.00158024
0.00139201
0.00129229
0.00123713
0.00120721
0.00119277
0.00118835
0.0011907
0.00119779
0.00120826
0.00122122
0.00123606
0.00125233
0.00126973
0.00128801
0.00130701
0.00132659
0.00134667
0.00136715
0.00138797
0.00140909
0.00143045
0.00145203
0.00147379
0.00149571
0.00151776
0.00153993
0.00156219
0.00158453
0.00160694
0.00162939
0.00165187
0.00167438
0.0016969
0.00171942
0.00174193
0.00176442
0.00178688
0.00180929
0.00183166
0.00185397
0.00187621
0.00189838
0.00192046
0.00194245
0.00196434
0.00198613
0.0020078
0.00202935
0.00205077
0.00207206
0.0020932
0.0021142
0.00213504
0.00215572
0.00217624
0.00219658
0.00221674
0.00223672
0.0022565
0.0022761
0.00229549
0.00231467
0.00233365
0.00235241
0.00237095
0.00238926
0.00240735
0.0024252
0.00244281
0.00246018
0.0024773
0.00249417
0.00251079
0.00252715
0.00254324
0.00255908
0.00257464
0.00258992
0.00260494
0.00261967
0.00263411
0.00264828
0.00266215
0.00267572
0.002689
0.00270198
0.00271466
0.00272703
0.00273909
0.00275083
0.00276226
0.00277337
0.00278416
0.00279462
0.00280475
0.00281454
0.002824
0.00283312
0.00284189
0.00285031
0.00285839
0.0028661
0.00287346
0.00288045
0.00288707
0.00289332
0.00289919
0.00290468
0.00290978
0.00291449
0.0029188
0.00292271
0.00292621
0.00292929
0.00293195
0.00293419
0.00293599
0.00293736
0.00293827
0.00293873
0.0171101
0.00630885
0.0031868
0.00213064
0.0016975
0.00148433
0.00136573
0.00129545
0.001253
0.00122791
0.00121427
0.00120849
0.00120826
0.00121208
0.00121891
0.00122803
0.00123893
0.00125123
0.00126465
0.00127899
0.00129408
0.00130981
0.00132608
0.0013428
0.00135993
0.00137739
0.00139516
0.00141319
0.00143146
0.00144993
0.00146859
0.0014874
0.00150636
0.00152545
0.00154464
0.00156392
0.00158329
0.00160272
0.00162221
0.00164174
0.0016613
0.00168089
0.00170048
0.00172008
0.00173968
0.00175925
0.00177881
0.00179832
0.0018178
0.00183723
0.00185659
0.00187589
0.00189512
0.00191427
0.00193333
0.00195229
0.00197115
0.0019899
0.00200853
0.00202704
0.00204542
0.00206366
0.00208177
0.00209972
0.00211752
0.00213516
0.00215264
0.00216994
0.00218707
0.00220401
0.00222077
0.00223733
0.0022537
0.00226986
0.00228582
0.00230157
0.0023171
0.00233241
0.00234749
0.00236234
0.00237696
0.00239135
0.00240549
0.00241938
0.00243303
0.00244642
0.00245956
0.00247243
0.00248504
0.00249738
0.00250944
0.00252124
0.00253275
0.00254398
0.00255492
0.00256557
0.00257593
0.00258599
0.00259575
0.00260521
0.00261436
0.00262319
0.00263171
0.00263991
0.00264779
0.00265534
0.00266256
0.00266944
0.00267598
0.00268218
0.00268803
0.00269353
0.00269867
0.00270345
0.00270786
0.0027119
0.00271557
0.00271885
0.00272174
0.00272423
0.00272633
0.00272802
0.0027293
0.00273016
0.00273059
0.0184733
0.00676361
0.00341241
0.00228168
0.00181226
0.00157507
0.00143832
0.00135354
0.00129914
0.00126397
0.00124164
0.00122824
0.00122122
0.00121891
0.00122013
0.00122405
0.00123009
0.0012378
0.00124687
0.00125705
0.00126815
0.00128002
0.00129255
0.00130565
0.00131924
0.00133326
0.00134767
0.0013624
0.00137744
0.00139275
0.0014083
0.00142407
0.00144003
0.00145617
0.00147247
0.00148891
0.00150548
0.00152216
0.00153894
0.00155582
0.00157277
0.00158978
0.00160686
0.00162397
0.00164113
0.00165831
0.00167551
0.00169271
0.00170992
0.00172712
0.0017443
0.00176145
0.00177858
0.00179566
0.00181269
0.00182967
0.00184659
0.00186343
0.0018802
0.00189688
0.00191348
0.00192997
0.00194636
0.00196264
0.0019788
0.00199484
0.00201075
0.00202652
0.00204215
0.00205764
0.00207297
0.00208814
0.00210315
0.00211799
0.00213266
0.00214715
0.00216145
0.00217556
0.00218948
0.00220319
0.00221671
0.00223001
0.00224311
0.00225598
0.00226864
0.00228107
0.00229326
0.00230523
0.00231695
0.00232844
0.00233967
0.00235066
0.00236139
0.00237187
0.00238208
0.00239203
0.00240171
0.00241111
0.00242024
0.00242908
0.00243764
0.00244592
0.0024539
0.00246158
0.00246896
0.00247604
0.00248281
0.00248927
0.00249541
0.00250123
0.00250672
0.00251188
0.00251671
0.0025212
0.00252535
0.00252914
0.00253258
0.00253567
0.00253838
0.00254073
0.0025427
0.00254429
0.00254549
0.0025463
0.00254671
0.0197996
0.00720351
0.00363114
0.00242881
0.0019245
0.00166417
0.00150994
0.00141123
0.00134539
0.0013006
0.00127003
0.00124944
0.00123606
0.00122803
0.00122405
0.00122319
0.00122478
0.00122832
0.00123345
0.00123988
0.00124738
0.0012558
0.00126499
0.00127486
0.0012853
0.00129626
0.00130766
0.00131947
0.00133164
0.00134414
0.00135692
0.00136998
0.00138327
0.00139679
0.00141051
0.00142441
0.00143848
0.0014527
0.00146706
0.00148155
0.00149616
0.00151087
0.00152567
0.00154055
0.0015555
0.00157052
0.00158559
0.00160071
0.00161586
0.00163103
0.00164623
0.00166143
0.00167664
0.00169184
0.00170703
0.0017222
0.00173734
0.00175244
0.0017675
0.00178251
0.00179747
0.00181236
0.00182718
0.00184192
0.00185657
0.00187114
0.00188561
0.00189997
0.00191423
0.00192837
0.00194238
0.00195627
0.00197003
0.00198365
0.00199712
0.00201045
0.00202361
0.00203662
0.00204946
0.00206213
0.00207462
0.00208694
0.00209906
0.002111
0.00212274
0.00213428
0.00214562
0.00215674
0.00216765
0.00217835
0.00218882
0.00219907
0.00220909
0.00221887
0.00222841
0.00223771
0.00224676
0.00225556
0.00226411
0.0022724
0.00228042
0.00228818
0.00229566
0.00230287
0.00230981
0.00231645
0.00232281
0.00232888
0.00233465
0.00234013
0.00234529
0.00235015
0.00235469
0.00235892
0.00236282
0.0023664
0.00236964
0.00237254
0.0023751
0.00237731
0.00237917
0.00238067
0.0023818
0.00238256
0.00238295
0.0210893
0.00762911
0.00384323
0.00257213
0.00203424
0.00175162
0.00158056
0.00146844
0.00139161
0.0013376
0.00129915
0.00127173
0.00125233
0.00123893
0.00123009
0.00122478
0.00122226
0.00122197
0.00122349
0.0012265
0.00123074
0.00123604
0.00124222
0.00124917
0.00125679
0.00126499
0.00127372
0.00128291
0.00129251
0.00130248
0.0013128
0.00132343
0.00133433
0.0013455
0.00135691
0.00136853
0.00138036
0.00139238
0.00140457
0.00141691
0.0014294
0.00144203
0.00145478
0.00146764
0.00148061
0.00149367
0.00150681
0.00152002
0.0015333
0.00154664
0.00156003
0.00157346
0.00158692
0.0016004
0.0016139
0.00162741
0.00164092
0.00165442
0.00166792
0.00168139
0.00169483
0.00170824
0.00172161
0.00173493
0.0017482
0.0017614
0.00177454
0.0017876
0.00180058
0.00181347
0.00182627
0.00183897
0.00185157
0.00186405
0.00187642
0.00188866
0.00190078
0.00191276
0.0019246
0.00193629
0.00194784
0.00195923
0.00197045
0.00198152
0.00199241
0.00200312
0.00201366
0.00202401
0.00203416
0.00204413
0.00205389
0.00206345
0.0020728
0.00208194
0.00209086
0.00209956
0.00210803
0.00211628
0.00212429
0.00213206
0.00213959
0.00214687
0.0021539
0.00216067
0.00216718
0.00217343
0.00217942
0.00218513
0.00219056
0.00219571
0.00220058
0.00220515
0.00220944
0.00221342
0.0022171
0.00222047
0.00222352
0.00222626
0.00222868
0.00223077
0.00223252
0.00223393
0.002235
0.00223572
0.00223608
0.0223434
0.00804106
0.00404898
0.00271176
0.00214157
0.00183745
0.00165015
0.00152512
0.00143768
0.00137481
0.00132881
0.00129485
0.00126973
0.00125123
0.0012378
0.00122832
0.00122197
0.00121812
0.00121631
0.00121617
0.00121744
0.00121988
0.00122332
0.00122763
0.0012327
0.00123842
0.00124472
0.00125155
0.00125884
0.00126655
0.00127465
0.00128309
0.00129185
0.00130091
0.00131024
0.00131981
0.00132962
0.00133965
0.00134987
0.00136028
0.00137087
0.00138161
0.0013925
0.00140354
0.0014147
0.00142597
0.00143736
0.00144885
0.00146043
0.00147209
0.00148382
0.00149562
0.00150748
0.00151939
0.00153134
0.00154332
0.00155534
0.00156737
0.00157942
0.00159147
0.00160352
0.00161556
0.00162759
0.0016396
0.00165157
0.00166351
0.00167541
0.00168726
0.00169906
0.00171079
0.00172246
0.00173405
0.00174557
0.00175699
0.00176833
0.00177956
0.00179069
0.00180171
0.00181262
0.0018234
0.00183406
0.00184459
0.00185498
0.00186522
0.00187532
0.00188526
0.00189504
0.00190467
0.00191412
0.0019234
0.0019325
0.00194141
0.00195014
0.00195868
0.00196702
0.00197516
0.0019831
0.00199082
0.00199833
0.00200561
0.00201268
0.00201951
0.00202612
0.00203248
0.00203861
0.00204449
0.00205012
0.0020555
0.00206061
0.00206547
0.00207006
0.00207437
0.00207841
0.00208217
0.00208564
0.00208882
0.00209171
0.00209429
0.00209657
0.00209854
0.0021002
0.00210154
0.00210255
0.00210322
0.00210357
0.023563
0.00844005
0.0042487
0.00284788
0.00224655
0.00192171
0.00171874
0.00158122
0.00148356
0.00141213
0.00135886
0.00131862
0.00128801
0.00126465
0.00124687
0.00123345
0.00122349
0.00121631
0.00121139
0.00120834
0.00120685
0.00120667
0.00120761
0.0012095
0.00121224
0.0012157
0.00121981
0.0012245
0.0012297
0.00123536
0.00124145
0.00124792
0.00125474
0.00126189
0.00126934
0.00127707
0.00128505
0.00129328
0.00130172
0.00131038
0.00131924
0.00132827
0.00133748
0.00134685
0.00135637
0.00136603
0.00137581
0.00138572
0.00139575
0.00140587
0.00141609
0.0014264
0.00143679
0.00144725
0.00145778
0.00146836
0.00147899
0.00148967
0.00150038
0.00151112
0.00152188
0.00153266
0.00154344
0.00155423
0.001565
0.00157577
0.00158652
0.00159724
0.00160793
0.00161858
0.00162919
0.00163975
0.00165025
0.00166068
0.00167105
0.00168134
0.00169155
0.00170167
0.0017117
0.00172163
0.00173146
0.00174117
0.00175077
0.00176025
0.00176959
0.00177881
0.00178789
0.00179683
0.00180562
0.00181425
0.00182273
0.00183104
0.00183919
0.00184716
0.00185495
0.00186256
0.00186999
0.00187722
0.00188426
0.00189109
0.00189772
0.00190414
0.00191034
0.00191633
0.00192209
0.00192762
0.00193292
0.00193799
0.00194281
0.00194738
0.00195171
0.00195578
0.00195959
0.00196313
0.00196641
0.00196942
0.00197214
0.00197458
0.00197674
0.0019786
0.00198017
0.00198143
0.00198238
0.00198303
0.00198335
0.0247494
0.00882676
0.00444272
0.00298063
0.0023493
0.00200445
0.00178634
0.00163675
0.0015292
0.00144949
0.00138919
0.0013429
0.00130701
0.00127899
0.00125705
0.00123988
0.0012265
0.00121617
0.00120834
0.00120257
0.00119851
0.0011959
0.00119452
0.0011942
0.00119479
0.00119619
0.0011983
0.00120103
0.00120433
0.00120813
0.00121239
0.00121708
0.00122214
0.00122756
0.0012333
0.00123935
0.00124568
0.00125227
0.00125911
0.00126617
0.00127345
0.00128094
0.00128861
0.00129646
0.00130449
0.00131266
0.00132099
0.00132946
0.00133806
0.00134678
0.00135561
0.00136455
0.00137359
0.00138272
0.00139193
0.00140122
0.00141058
0.00142
0.00142947
0.001439
0.00144856
0.00145816
0.00146779
0.00147744
0.0014871
0.00149677
0.00150645
0.00151612
0.00152577
0.00153541
0.00154503
0.00155462
0.00156416
0.00157367
0.00158313
0.00159253
0.00160188
0.00161115
0.00162035
0.00162948
0.00163852
0.00164747
0.00165632
0.00166507
0.00167371
0.00168224
0.00169066
0.00169895
0.00170711
0.00171513
0.00172302
0.00173076
0.00173835
0.00174579
0.00175307
0.00176018
0.00176712
0.00177389
0.00178048
0.00178689
0.00179311
0.00179913
0.00180496
0.00181058
0.001816
0.0018212
0.00182619
0.00183095
0.0018355
0.00183981
0.00184389
0.00184773
0.00185132
0.00185467
0.00185776
0.0018606
0.00186317
0.00186548
0.00186752
0.00186928
0.00187076
0.00187195
0.00187285
0.00187346
0.00187377
0.0259041
0.00920188
0.00463135
0.00311018
0.0024499
0.00208573
0.00185298
0.00169171
0.00157457
0.00148684
0.00141974
0.00136759
0.00132659
0.00129408
0.00126815
0.00124738
0.00123074
0.00121744
0.00120685
0.00119851
0.00119205
0.00118717
0.00118363
0.00118125
0.00117987
0.00117937
0.00117963
0.00118057
0.00118213
0.00118423
0.00118683
0.00118988
0.00119334
0.00119719
0.00120138
0.0012059
0.00121072
0.00121582
0.00122119
0.00122681
0.00123266
0.00123872
0.001245
0.00125147
0.00125812
0.00126494
0.00127193
0.00127908
0.00128637
0.0012938
0.00130136
0.00130904
0.00131683
0.00132474
0.00133274
0.00134083
0.00134901
0.00135727
0.0013656
0.00137399
0.00138245
0.00139095
0.0013995
0.00140809
0.00141672
0.00142537
0.00143404
0.00144272
0.00145141
0.0014601
0.00146878
0.00147746
0.00148611
0.00149475
0.00150335
0.00151192
0.00152044
0.00152892
0.00153734
0.0015457
0.001554
0.00156222
0.00157037
0.00157843
0.00158641
0.00159429
0.00160207
0.00160975
0.00161731
0.00162476
0.00163209
0.00163928
0.00164635
0.00165328
0.00166007
0.0016667
0.00167319
0.00167952
0.00168568
0.00169168
0.00169751
0.00170316
0.00170862
0.0017139
0.00171899
0.00172388
0.00172857
0.00173306
0.00173734
0.0017414
0.00174524
0.00174886
0.00175225
0.00175541
0.00175833
0.00176101
0.00176344
0.00176562
0.00176754
0.00176921
0.0017706
0.00177173
0.00177259
0.00177316
0.00177345
0.0270284
0.00956603
0.00481487
0.00323668
0.00254844
0.00216559
0.00191868
0.00174609
0.00161965
0.00152415
0.00145043
0.0013926
0.00134667
0.00130981
0.00128002
0.0012558
0.00123604
0.00121988
0.00120667
0.0011959
0.00118717
0.00118015
0.0011746
0.0011703
0.00116708
0.00116481
0.00116337
0.00116266
0.00116261
0.00116315
0.00116423
0.00116578
0.00116778
0.00117018
0.00117296
0.00117608
0.00117953
0.00118327
0.0011873
0.00119159
0.00119613
0.0012009
0.00120589
0.00121109
0.00121649
0.00122208
0.00122784
0.00123378
0.00123987
0.00124611
0.00125249
0.00125901
0.00126566
0.00127243
0.00127931
0.0012863
0.00129339
0.00130057
0.00130783
0.00131518
0.0013226
0.00133009
0.00133764
0.00134524
0.00135289
0.00136058
0.00136831
0.00137607
0.00138385
0.00139165
0.00139946
0.00140728
0.0014151
0.0014229
0.0014307
0.00143848