/*--------------------------------*- C++ -*----------------------------------*\
| =========                 |                                                 |
| \\      /  F ield         | OpenFOAM: The Open Source CFD Toolbox           |
|  \\    /   O peration     | Version:  2306                                  |
|   \\  /    A nd           | Website:  www.openfoam.com                      |
|    \\/     M anipulation  |                                                 |
\*---------------------------------------------------------------------------*/
// * * * * * * * * * * * * * * * * * * * * * * * * * * * * * * * * * * * * * //
FoamFile
{
    version         2;
    format          ascii;
    class           volScalarField;
    location        "98.28";
    object          k;
}

dimensions      [ 0 2 -2 0 0 0 0 ];

internalField   nonuniform List<scalar> 
15625
(
0.00045846
0.000515235
0.000626662
0.000776139
0.000947632
0.001129
0.00131204
0.00149164
0.00166488
0.00183031
0.00198739
0.00213617
0.00227696
0.00241028
0.00253666
0.00265666
0.00277081
0.0028796
0.00298345
0.00308278
0.00317793
0.00326923
0.00335696
0.00344137
0.00352269
0.00360113
0.00367687
0.00375007
0.0038209
0.00388948
0.00395595
0.00402042
0.00408299
0.00414376
0.00420282
0.00426026
0.00431615
0.00437055
0.00442355
0.00447519
0.00452553
0.00457463
0.00462254
0.0046693
0.00471495
0.00475955
0.00480311
0.00484569
0.00488731
0.00492801
0.00496782
0.00500676
0.00504486
0.00508215
0.00511864
0.00515437
0.00518935
0.00522361
0.00525715
0.00529001
0.00532219
0.00535372
0.0053846
0.00541486
0.0054445
0.00547354
0.00550199
0.00552986
0.00555717
0.00558392
0.00561013
0.00563579
0.00566093
0.00568554
0.00570965
0.00573324
0.00575634
0.00577894
0.00580106
0.0058227
0.00584386
0.00586454
0.00588476
0.00590452
0.00592381
0.00594265
0.00596104
0.00597898
0.00599646
0.0060135
0.0060301
0.00604626
0.00606197
0.00607724
0.00609207
0.00610646
0.00612042
0.00613393
0.006147
0.00615963
0.00617182
0.00618357
0.00619487
0.00620573
0.00621614
0.0062261
0.0062356
0.00624465
0.00625323
0.00626136
0.00626902
0.00627621
0.00628292
0.00628916
0.00629491
0.00630017
0.00630493
0.0063092
0.00631295
0.0063162
0.00631892
0.00632111
0.00632277
0.00632389
0.00632445
0.000515235
0.000435144
0.000447344
0.000506666
0.000590462
0.000685863
0.000785238
0.000884119
0.000980024
0.00107171
0.0011587
0.00124092
0.00131856
0.00139191
0.0014613
0.00152707
0.00158954
0.00164901
0.00170573
0.00175995
0.00181187
0.00186168
0.00190954
0.0019556
0.00199998
0.00204282
0.0020842
0.00212423
0.00216299
0.00220055
0.00223699
0.00227237
0.00230675
0.00234017
0.0023727
0.00240436
0.00243522
0.00246529
0.00249462
0.00252325
0.00255119
0.00257848
0.00260515
0.00263122
0.00265671
0.00268164
0.00270604
0.00272992
0.0027533
0.0027762
0.00279862
0.0028206
0.00284213
0.00286323
0.00288392
0.00290421
0.0029241
0.0029436
0.00296274
0.0029815
0.00299991
0.00301797
0.00303569
0.00305308
0.00307013
0.00308687
0.00310328
0.00311939
0.00313519
0.00315069
0.0031659
0.00318081
0.00319544
0.00320978
0.00322384
0.00323762
0.00325113
0.00326436
0.00327733
0.00329003
0.00330246
0.00331463
0.00332654
0.00333819
0.00334958
0.00336072
0.00337159
0.00338221
0.00339258
0.00340269
0.00341255
0.00342215
0.0034315
0.0034406
0.00344944
0.00345802
0.00346635
0.00347443
0.00348225
0.00348981
0.00349711
0.00350415
0.00351092
0.00351744
0.00352369
0.00352967
0.00353538
0.00354083
0.00354599
0.00355089
0.0035555
0.00355983
0.00356388
0.00356764
0.00357111
0.00357428
0.00357716
0.00357974
0.003582
0.00358396
0.00358561
0.00358693
0.00358794
0.00358861
0.00358895
0.000626662
0.000447344
0.000404899
0.000430033
0.000490029
0.000567672
0.000653154
0.000740765
0.000827264
0.000910931
0.00099096
0.00106708
0.00113932
0.00120786
0.00127295
0.00133486
0.00139385
0.00145017
0.00150404
0.00155569
0.00160527
0.00165297
0.00169891
0.00174325
0.00178608
0.00182751
0.00186764
0.00190654
0.0019443
0.00198098
0.00201665
0.00205136
0.00208516
0.0021181
0.00215022
0.00218157
0.00221218
0.00224208
0.0022713
0.00229988
0.00232784
0.00235521
0.00238201
0.00240825
0.00243397
0.00245918
0.00248389
0.00250813
0.0025319
0.00255523
0.00257812
0.00260059
0.00262266
0.00264432
0.00266559
0.00268649
0.00270702
0.00272718
0.00274699
0.00276646
0.00278559
0.00280438
0.00282285
0.002841
0.00285884
0.00287636
0.00289358
0.0029105
0.00292712
0.00294344
0.00295948
0.00297523
0.0029907
0.00300589
0.0030208
0.00303543
0.00304979
0.00306388
0.0030777
0.00309124
0.00310452
0.00311754
0.00313029
0.00314277
0.00315499
0.00316694
0.00317863
0.00319005
0.00320122
0.00321211
0.00322275
0.00323312
0.00324322
0.00325305
0.00326262
0.00327192
0.00328095
0.00328971
0.00329819
0.0033064
0.00331434
0.00332199
0.00332937
0.00333646
0.00334327
0.00334979
0.00335601
0.00336195
0.00336759
0.00337293
0.00337797
0.00338271
0.00338713
0.00339124
0.00339504
0.00339851
0.00340166
0.00340448
0.00340696
0.00340911
0.00341091
0.00341236
0.00341346
0.0034142
0.00341457
0.000776139
0.000506666
0.000430033
0.00044797
0.000514323
0.000604748
0.000705608
0.00080923
0.00091144
0.00101012
0.00110431
0.00119375
0.00127848
0.00135876
0.00143489
0.0015072
0.00157603
0.00164168
0.00170441
0.00176448
0.00182211
0.00187749
0.00193081
0.0019822
0.00203182
0.00207979
0.00212623
0.00217122
0.00221486
0.00225724
0.00229843
0.00233849
0.0023775
0.0024155
0.00245254
0.00248868
0.00252396
0.00255841
0.00259209
0.00262501
0.00265721
0.00268873
0.00271958
0.0027498
0.00277941
0.00280842
0.00283687
0.00286477
0.00289213
0.00291898
0.00294533
0.0029712
0.00299659
0.00302152
0.00304601
0.00307006
0.00309369
0.0031169
0.00313971
0.00316212
0.00318414
0.00320578
0.00322704
0.00324794
0.00326848
0.00328866
0.00330849
0.00332797
0.00334711
0.00336592
0.0033844
0.00340254
0.00342036
0.00343786
0.00345504
0.0034719
0.00348844
0.00350468
0.0035206
0.00353622
0.00355152
0.00356652
0.00358121
0.0035956
0.00360969
0.00362347
0.00363695
0.00365012
0.00366299
0.00367555
0.00368781
0.00369977
0.00371142
0.00372276
0.00373379
0.00374452
0.00375493
0.00376503
0.00377482
0.00378429
0.00379344
0.00380227
0.00381078
0.00381896
0.00382681
0.00383433
0.00384152
0.00384837
0.00385487
0.00386104
0.00386685
0.00387231
0.00387741
0.00388216
0.00388653
0.00389054
0.00389417
0.00389743
0.00390029
0.00390277
0.00390485
0.00390652
0.00390779
0.00390864
0.00390907
0.000947632
0.000590462
0.000490029
0.000514323
0.000600743
0.000715511
0.000840378
0.000965994
0.00108785
0.00120398
0.00131373
0.00141711
0.00151444
0.00160617
0.00169277
0.00177471
0.00185244
0.00192634
0.00199678
0.00206405
0.00212845
0.00219021
0.00224954
0.00230664
0.00236168
0.00241481
0.00246616
0.00251586
0.00256401
0.00261071
0.00265604
0.0027001
0.00274295
0.00278466
0.0028253
0.0028649
0.00290354
0.00294125
0.00297808
0.00301407
0.00304926
0.00308367
0.00311735
0.00315032
0.0031826
0.00321423
0.00324523
0.00327562
0.00330541
0.00333464
0.00336332
0.00339145
0.00341907
0.00344618
0.0034728
0.00349895
0.00352462
0.00354984
0.00357461
0.00359895
0.00362286
0.00364635
0.00366943
0.00369212
0.0037144
0.0037363
0.00375781
0.00377895
0.00379971
0.00382011
0.00384014
0.00385982
0.00387914
0.00389811
0.00391673
0.00393501
0.00395295
0.00397054
0.0039878
0.00400472
0.0040213
0.00403756
0.00405348
0.00406907
0.00408433
0.00409925
0.00411385
0.00412812
0.00414206
0.00415567
0.00416895
0.0041819
0.00419452
0.0042068
0.00421875
0.00423036
0.00424164
0.00425258
0.00426317
0.00427343
0.00428333
0.00429289
0.0043021
0.00431096
0.00431946
0.0043276
0.00433538
0.0043428
0.00434984
0.00435651
0.00436281
0.00436872
0.00437424
0.00437938
0.00438411
0.00438845
0.00439238
0.0043959
0.004399
0.00440168
0.00440393
0.00440575
0.00440712
0.00440804
0.0044085
0.001129
0.000685863
0.000567672
0.000604748
0.000715511
0.000855612
0.00100273
0.00114691
0.00128416
0.00141318
0.00153389
0.00164673
0.00175232
0.00185137
0.0019445
0.00203234
0.00211542
0.00219421
0.00226913
0.00234055
0.00240879
0.00247412
0.0025368
0.00259704
0.00265503
0.00271095
0.00276494
0.00281713
0.00286766
0.00291663
0.00296414
0.00301028
0.00305513
0.00309875
0.00314123
0.00318262
0.00322298
0.00326236
0.0033008
0.00333835
0.00337505
0.00341094
0.00344605
0.00348041
0.00351406
0.00354702
0.00357932
0.00361097
0.00364201
0.00367245
0.00370231
0.00373161
0.00376036
0.00378859
0.00381631
0.00384353
0.00387026
0.00389651
0.0039223
0.00394764
0.00397253
0.00399699
0.00402102
0.00404463
0.00406784
0.00409064
0.00411304
0.00413504
0.00415667
0.00417791
0.00419877
0.00421926
0.00423939
0.00425915
0.00427854
0.00429758
0.00431626
0.00433459
0.00435257
0.0043702
0.00438748
0.00440442
0.00442101
0.00443725
0.00445315
0.00446871
0.00448393
0.0044988
0.00451333
0.00452752
0.00454136
0.00455486
0.00456801
0.00458082
0.00459328
0.00460538
0.00461714
0.00462855
0.0046396
0.00465029
0.00466062
0.00467059
0.0046802
0.00468944
0.0046983
0.00470679
0.00471491
0.00472264
0.00472999
0.00473695
0.00474351
0.00474968
0.00475544
0.0047608
0.00476574
0.00477027
0.00477437
0.00477804
0.00478128
0.00478407
0.00478642
0.00478831
0.00478974
0.0047907
0.00479119
0.00131204
0.000785238
0.000653154
0.000705608
0.000840378
0.00100273
0.00116757
0.00132538
0.0014732
0.00161059
0.0017381
0.00185658
0.00196694
0.00207005
0.00216673
0.00225766
0.00234346
0.00242468
0.00250177
0.00257514
0.00264514
0.00271207
0.00277621
0.00283778
0.00289701
0.00295406
0.0030091
0.00306228
0.00311373
0.00316356
0.00321188
0.00325879
0.00330436
0.00334868
0.00339182
0.00343384
0.0034748
0.00351476
0.00355377
0.00359187
0.0036291
0.0036655
0.00370112
0.00373597
0.0037701
0.00380353
0.00383629
0.0038684
0.00389988
0.00393076
0.00396106
0.00399079
0.00401998
0.00404863
0.00407676
0.00410439
0.00413154
0.0041582
0.00418439
0.00421013
0.00423542
0.00426028
0.0042847
0.00430871
0.0043323
0.00435548
0.00437826
0.00440065
0.00442265
0.00444427
0.0044655
0.00448636
0.00450685
0.00452697
0.00454673
0.00456612
0.00458516
0.00460384
0.00462216
0.00464013
0.00465775
0.00467502
0.00469194
0.00470851
0.00472473
0.00474061
0.00475613
0.00477131
0.00478614
0.00480063
0.00481476
0.00482855
0.00484198
0.00485506
0.00486778
0.00488016
0.00489217
0.00490382
0.00491512
0.00492604
0.00493661
0.0049468
0.00495662
0.00496606
0.00497513
0.00498382
0.00499211
0.00500002
0.00500754
0.00501466
0.00502137
0.00502768
0.00503358
0.00503906
0.00504411
0.00504874
0.00505294
0.0050567
0.00506001
0.00506287
0.00506527
0.00506721
0.00506867
0.00506966
0.00507015
0.00149164
0.000884119
0.000740765
0.00080923
0.000965994
0.00114691
0.00132538
0.00149295
0.00164788
0.0017906
0.0019222
0.00204389
0.00215682
0.00226202
0.00236039
0.0024527
0.00253964
0.00262178
0.00269962
0.00277359
0.00284407
0.00291139
0.00297581
0.0030376
0.00309698
0.00315413
0.00320922
0.00326242
0.00331385
0.00336363
0.00341189
0.0034587
0.00350418
0.00354839
0.00359141
0.0036333
0.00367414
0.00371396
0.00375284
0.0037908
0.00382791
0.00386418
0.00389967
0.00393441
0.00396842
0.00400175
0.0040344
0.00406642
0.00409781
0.00412861
0.00415884
0.0041885
0.00421763
0.00424623
0.00427432
0.00430192
0.00432903
0.00435567
0.00438185
0.00440759
0.00443288
0.00445774
0.00448218
0.00450621
0.00452983
0.00455305
0.00457587
0.0045983
0.00462036
0.00464203
0.00466333
0.00468425
0.00470481
0.00472501
0.00474485
0.00476433
0.00478345
0.00480222
0.00482064
0.0048387
0.00485642
0.00487379
0.00489081
0.00490749
0.00492382
0.0049398
0.00495544
0.00497073
0.00498568
0.00500027
0.00501452
0.00502841
0.00504196
0.00505515
0.00506799
0.00508047
0.00509259
0.00510435
0.00511575
0.00512678
0.00513745
0.00514774
0.00515766
0.0051672
0.00517636
0.00518513
0.00519352
0.00520151
0.00520911
0.0052163
0.00522309
0.00522947
0.00523543
0.00524097
0.00524609
0.00525077
0.00525501
0.00525882
0.00526217
0.00526506
0.00526749
0.00526945
0.00527093
0.00527192
0.00527242
0.00166488
0.000980024
0.000827264
0.00091144
0.00108785
0.00128416
0.0014732
0.00164788
0.00180767
0.00195381
0.00208787
0.00221134
0.00232556
0.00243168
0.00253067
0.00262338
0.00271053
0.00279272
0.00287048
0.00294427
0.00301448
0.00308144
0.00314545
0.00320678
0.00326564
0.00332224
0.00337677
0.00342936
0.00348018
0.00352934
0.00357696
0.00362314
0.00366797
0.00371154
0.00375392
0.00379519
0.0038354
0.00387461
0.00391287
0.00395024
0.00398676
0.00402246
0.00405739
0.00409158
0.00412507
0.00415787
0.00419003
0.00422156
0.00425248
0.00428283
0.00431261
0.00434185
0.00437057
0.00439878
0.00442649
0.00445372
0.00448049
0.0045068
0.00453266
0.00455809
0.00458309
0.00460768
0.00463186
0.00465564
0.00467902
0.00470201
0.00472463
0.00474686
0.00476872
0.00479022
0.00481135
0.00483213
0.00485254
0.0048726
0.00489231
0.00491168
0.00493069
0.00494936
0.00496769
0.00498567
0.00500332
0.00502062
0.00503758
0.0050542
0.00507049
0.00508643
0.00510203
0.00511728
0.0051322
0.00514677
0.005161
0.00517488
0.00518842
0.0052016
0.00521444
0.00522692
0.00523904
0.00525081
0.00526222
0.00527326
0.00528394
0.00529424
0.00530417
0.00531373
0.00532291
0.0053317
0.0053401
0.00534811
0.00535573
0.00536294
0.00536975
0.00537614
0.00538212
0.00538768
0.00539281
0.00539751
0.00540176
0.00540558
0.00540894
0.00541184
0.00541428
0.00541625
0.00541773
0.00541873
0.00541923
0.00183031
0.00107171
0.000910931
0.00101012
0.00120398
0.00141318
0.00161059
0.0017906
0.00195381
0.00210218
0.00223769
0.00236209
0.00247685
0.00258322
0.00268224
0.0027748
0.00286164
0.0029434
0.00302063
0.00309379
0.00316329
0.00322948
0.00329267
0.00335313
0.00341109
0.00346677
0.00352034
0.00357197
0.0036218
0.00366997
0.0037166
0.00376178
0.00380562
0.00384821
0.00388961
0.0039299
0.00396915
0.00400741
0.00404474
0.00408119
0.00411681
0.00415163
0.00418569
0.00421903
0.00425168
0.00428367
0.00431504
0.00434579
0.00437597
0.00440558
0.00443465
0.0044632
0.00449125
0.00451881
0.00454589
0.00457251
0.00459869
0.00462443
0.00464974
0.00467463
0.00469912
0.00472322
0.00474692
0.00477024
0.00479318
0.00481575
0.00483795
0.0048598
0.00488129
0.00490242
0.00492321
0.00494366
0.00496376
0.00498352
0.00500294
0.00502203
0.00504079
0.00505921
0.0050773
0.00509506
0.00511249
0.00512959
0.00514636
0.0051628
0.00517892
0.00519469
0.00521014
0.00522526
0.00524004
0.00525448
0.00526859
0.00528236
0.00529579
0.00530888
0.00532162
0.00533401
0.00534606
0.00535775
0.00536908
0.00538006
0.00539068
0.00540093
0.00541081
0.00542032
0.00542945
0.0054382
0.00544657
0.00545455
0.00546213
0.00546932
0.0054761
0.00548247
0.00548843
0.00549397
0.00549909
0.00550377
0.00550801
0.00551182
0.00551517
0.00551806
0.0055205
0.00552246
0.00552394
0.00552493
0.00552544
0.00198739
0.0011587
0.00099096
0.00110431
0.00131373
0.00153389
0.0017381
0.0019222
0.00208787
0.00223769
0.00237402
0.00249882
0.00261368
0.00271993
0.00281864
0.00291075
0.00299701
0.00307808
0.00315453
0.00322683
0.0032954
0.00336061
0.00342276
0.00348214
0.00353899
0.00359352
0.00364592
0.00369637
0.003745
0.00379197
0.00383739
0.00388136
0.00392399
0.00396536
0.00400556
0.00404467
0.00408273
0.00411983
0.004156
0.00419132
0.00422581
0.00425952
0.0042925
0.00432477
0.00435638
0.00438735
0.0044177
0.00444748
0.00447669
0.00450537
0.00453352
0.00456118
0.00458836
0.00461507
0.00464133
0.00466715
0.00469254
0.00471752
0.0047421
0.00476629
0.00479009
0.00481351
0.00483657
0.00485926
0.00488159
0.00490358
0.00492522
0.00494652
0.00496748
0.00498811
0.00500841
0.00502838
0.00504803
0.00506736
0.00508636
0.00510505
0.00512342
0.00514147
0.00515921
0.00517662
0.00519373
0.00521052
0.00522699
0.00524314
0.00525898
0.0052745
0.0052897
0.00530457
0.00531913
0.00533336
0.00534726
0.00536084
0.00537408
0.00538699
0.00539957
0.0054118
0.0054237
0.00543525
0.00544645
0.00545731
0.0054678
0.00547794
0.00548772
0.00549713
0.00550617
0.00551483
0.00552312
0.00553102
0.00553854
0.00554566
0.00555238
0.0055587
0.0055646
0.0055701
0.00557517
0.00557981
0.00558402
0.0055878
0.00559112
0.005594
0.00559641
0.00559835
0.00559982
0.00560081
0.00560131
0.00213617
0.00124092
0.00106708
0.00119375
0.00141711
0.00164673
0.00185658
0.00204389
0.00221134
0.00236209
0.00249882
0.00262368
0.00273837
0.00284426
0.00294249
0.00303398
0.00311952
0.00319979
0.00327535
0.00334669
0.00341423
0.00347836
0.00353938
0.00359758
0.00365322
0.0037065
0.00375763
0.00380679
0.00385412
0.00389976
0.00394385
0.00398649
0.00402778
0.00406782
0.00410669
0.00414446
0.00418121
0.004217
0.00425188
0.00428591
0.00431913
0.00435159
0.00438333
0.00441439
0.0044448
0.00447459
0.00450379
0.00453243
0.00456053
0.00458811
0.0046152
0.00464182
0.00466797
0.00469368
0.00471897
0.00474384
0.0047683
0.00479238
0.00481608
0.00483941
0.00486238
0.00488499
0.00490726
0.00492919
0.00495079
0.00497206
0.004993
0.00501363
0.00503394
0.00505394
0.00507363
0.00509301
0.00511209
0.00513086
0.00514934
0.00516751
0.00518539
0.00520297
0.00522025
0.00523722
0.00525391
0.00527029
0.00528637
0.00530215
0.00531762
0.0053328
0.00534766
0.00536222
0.00537647
0.00539041
0.00540404
0.00541735
0.00543034
0.00544301
0.00545535
0.00546737
0.00547906
0.00549041
0.00550142
0.0055121
0.00552243
0.0055324
0.00554203
0.00555129
0.0055602
0.00556874
0.0055769
0.00558469
0.0055921
0.00559913
0.00560576
0.00561199
0.00561782
0.00562324
0.00562825
0.00563284
0.00563699
0.00564072
0.00564401
0.00564684
0.00564923
0.00565115
0.0056526
0.00565358
0.00565407
0.00227696
0.00131856
0.00113932
0.00127848
0.00151444
0.00175232
0.00196694
0.00215682
0.00232556
0.00247685
0.00261368
0.00273837
0.0028527
0.0029581
0.00305573
0.00314653
0.0032313
0.00331071
0.00338535
0.0034557
0.0035222
0.00358522
0.00364509
0.00370209
0.00375649
0.0038085
0.00385833
0.00390616
0.00395214
0.00399642
0.00403913
0.00408038
0.00412028
0.00415892
0.00419639
0.00423276
0.00426812
0.00430251
0.00433601
0.00436867
0.00440053
0.00443165
0.00446206
0.0044918
0.00452091
0.00454941
0.00457735
0.00460475
0.00463162
0.00465801
0.00468391
0.00470937
0.00473439
0.00475899
0.00478318
0.00480699
0.00483041
0.00485347
0.00487618
0.00489854
0.00492056
0.00494225
0.00496362
0.00498468
0.00500542
0.00502587
0.00504601
0.00506585
0.00508541
0.00510467
0.00512365
0.00514234
0.00516075
0.00517888
0.00519673
0.0052143
0.00523159
0.0052486
0.00526533
0.00528179
0.00529796
0.00531385
0.00532946
0.00534478
0.00535982
0.00537458
0.00538904
0.00540321
0.00541709
0.00543067
0.00544396
0.00545694
0.00546962
0.00548199
0.00549404
0.00550579
0.00551721
0.00552831
0.00553909
0.00554954
0.00555965
0.00556942
0.00557885
0.00558794
0.00559667
0.00560504
0.00561306
0.0056207
0.00562797
0.00563487
0.00564138
0.00564751
0.00565324
0.00565856
0.00566349
0.00566799
0.00567208
0.00567575
0.00567898
0.00568177
0.00568412
0.00568601
0.00568744
0.0056884
0.00568888
0.00241028
0.00139191
0.00120786
0.00135876
0.00160617
0.00185137
0.00207005
0.00226202
0.00243168
0.00258322
0.00271993
0.00284426
0.0029581
0.00306291
0.00315987
0.00324994
0.00333391
0.00341247
0.00348619
0.00355556
0.00362103
0.00368297
0.00374171
0.00379755
0.00385073
0.00390149
0.00395004
0.00399655
0.00404119
0.00408411
0.00412544
0.00416529
0.00420378
0.00424101
0.00427705
0.00431201
0.00434593
0.0043789
0.00441098
0.00444222
0.00447268
0.00450239
0.00453141
0.00455977
0.00458752
0.00461468
0.00464128
0.00466736
0.00469294
0.00471804
0.00474269
0.0047669
0.0047907
0.00481411
0.00483713
0.00485978
0.00488207
0.00490403
0.00492565
0.00494695
0.00496793
0.00498861
0.00500899
0.00502908
0.00504889
0.00506841
0.00508766
0.00510664
0.00512534
0.00514378
0.00516196
0.00517988
0.00519754
0.00521493
0.00523207
0.00524896
0.00526558
0.00528195
0.00529806
0.00531391
0.0053295
0.00534483
0.00535989
0.0053747
0.00538923
0.0054035
0.00541749
0.00543121
0.00544466
0.00545782
0.0054707
0.0054833
0.00549561
0.00550762
0.00551934
0.00553076
0.00554188
0.00555268
0.00556318
0.00557335
0.00558321
0.00559274
0.00560194
0.0056108
0.00561932
0.0056275
0.00563533
0.0056428
0.00564991
0.00565665
0.00566302
0.00566901
0.00567462
0.00567983
0.00568465
0.00568907
0.00569307
0.00569666
0.00569982
0.00570256
0.00570486
0.00570671
0.00570811
0.00570905
0.00570953
0.00253666
0.0014613
0.00127295
0.00143489
0.00169277
0.0019445
0.00216673
0.00236039
0.00253067
0.00268224
0.00281864
0.00294249
0.00305573
0.00315987
0.00325612
0.00334542
0.00342859
0.0035063
0.00357912
0.00364756
0.00371204
0.00377295
0.00383061
0.00388532
0.00393733
0.00398689
0.0040342
0.00407944
0.00412278
0.00416438
0.00420435
0.00424284
0.00427995
0.00431577
0.00435041
0.00438394
0.00441644
0.00444799
0.00447863
0.00450845
0.00453747
0.00456577
0.00459337
0.00462033
0.00464668
0.00467245
0.00469768
0.0047224
0.00474663
0.0047704
0.00479374
0.00481665
0.00483918
0.00486132
0.0048831
0.00490453
0.00492563
0.00494641
0.00496688
0.00498705
0.00500693
0.00502652
0.00504584
0.00506489
0.00508368
0.00510221
0.00512049
0.00513853
0.00515631
0.00517386
0.00519116
0.00520823
0.00522506
0.00524165
0.00525801
0.00527414
0.00529002
0.00530568
0.0053211
0.00533628
0.00535122
0.00536592
0.00538038
0.00539459
0.00540856
0.00542228
0.00543575
0.00544896
0.00546191
0.00547461
0.00548703
0.00549919
0.00551108
0.0055227
0.00553403
0.00554508
0.00555584
0.0055663
0.00557647
0.00558634
0.0055959
0.00560515
0.00561408
0.00562269
0.00563097
0.00563892
0.00564654
0.0056538
0.00566072
0.00566729
0.00567349
0.00567932
0.00568479
0.00568987
0.00569457
0.00569887
0.00570278
0.00570628
0.00570937
0.00571203
0.00571428
0.00571609
0.00571745
0.00571837
0.00571884
0.00265666
0.00152707
0.00133486
0.0015072
0.00177471
0.00203234
0.00225766
0.0024527
0.00262338
0.0027748
0.00291075
0.00303398
0.00314653
0.00324994
0.00334542
0.00343394
0.00351631
0.00359318
0.00366514
0.00373268
0.00379622
0.00385614
0.00391278
0.00396643
0.00401735
0.00406577
0.0041119
0.00415593
0.00419803
0.00423835
0.00427703
0.0043142
0.00434996
0.00438442
0.00441769
0.00444983
0.00448093
0.00451107
0.00454031
0.0045687
0.00459631
0.00462319
0.00464938
0.00467492
0.00469986
0.00472423
0.00474807
0.00477141
0.00479427
0.00481668
0.00483867
0.00486026
0.00488147
0.00490231
0.00492281
0.00494299
0.00496284
0.00498239
0.00500166
0.00502064
0.00503936
0.00505781
0.00507601
0.00509396
0.00511168
0.00512916
0.00514641
0.00516344
0.00518024
0.00519683
0.00521319
0.00522935
0.00524529
0.00526102
0.00527653
0.00529184
0.00530693
0.00532181
0.00533647
0.00535092
0.00536516
0.00537917
0.00539297
0.00540654
0.00541988
0.005433
0.00544589
0.00545854
0.00547095
0.00548312
0.00549504
0.00550672
0.00551814
0.00552931
0.00554021
0.00555084
0.00556121
0.00557129
0.0055811
0.00559062
0.00559985
0.00560878
0.00561741
0.00562574
0.00563375
0.00564144
0.00564881
0.00565585
0.00566255
0.00566892
0.00567493
0.00568059
0.00568589
0.00569082
0.00569538
0.00569956
0.00570335
0.00570675
0.00570975
0.00571235
0.00571453
0.00571628
0.00571761
0.00571851
0.00571896
0.00277081
0.00158954
0.00139385
0.00157603
0.00185244
0.00211542
0.00234346
0.00253964
0.00271053
0.00286164
0.00299701
0.00311952
0.0032313
0.00333391
0.00342859
0.00351631
0.00359786
0.00367391
0.00374503
0.0038117
0.00387435
0.00393335
0.00398903
0.00404168
0.00409156
0.00413891
0.00418394
0.00422683
0.00426776
0.00430687
0.00434432
0.00438023
0.00441471
0.00444787
0.00447981
0.00451061
0.00454036
0.00456913
0.00459699
0.004624
0.00465021
0.00467569
0.00470048
0.00472463
0.00474817
0.00477115
0.0047936
0.00481555
0.00483703
0.00485808
0.00487871
0.00489895
0.00491882
0.00493835
0.00495754
0.00497642
0.004995
0.0050133
0.00503132
0.00504908
0.00506659
0.00508386
0.0051009
0.00511771
0.0051343
0.00515069
0.00516686
0.00518283
0.0051986
0.00521417
0.00522955
0.00524474
0.00525974
0.00527455
0.00528916
0.00530359
0.00531784
0.00533189
0.00534575
0.00535941
0.00537289
0.00538616
0.00539924
0.00541212
0.00542479
0.00543725
0.00544951
0.00546155
0.00547337
0.00548497
0.00549635
0.0055075
0.00551841
0.00552908
0.00553951
0.0055497
0.00555962
0.00556929
0.0055787
0.00558784
0.0055967
0.00560529
0.00561359
0.00562159
0.0056293
0.00563671
0.00564381
0.0056506
0.00565706
0.0056632
0.005669
0.00567447
0.00567958
0.00568435
0.00568876
0.0056928
0.00569646
0.00569975
0.00570265
0.00570516
0.00570727
0.00570897
0.00571026
0.00571112
0.00571156
0.0028796
0.00164901
0.00145017
0.00164168
0.00192634
0.00219421
0.00242468
0.00262178
0.00279272
0.0029434
0.00307808
0.00319979
0.00331071
0.00341247
0.0035063
0.00359318
0.00367391
0.00374914
0.00381944
0.00388527
0.00394707
0.0040052
0.00405997
0.00411169
0.00416061
0.00420696
0.00425095
0.00429278
0.00433261
0.00437059
0.00440688
0.0044416
0.00447486
0.00450678
0.00453746
0.00456698
0.00459543
0.00462288
0.00464941
0.00467507
0.00469994
0.00472405
0.00474748
0.00477025
0.00479242
0.00481402
0.0048351
0.00485567
0.00487579
0.00489547
0.00491475
0.00493364
0.00495217
0.00497037
0.00498824
0.00500582
0.0050231
0.00504012
0.00505688
0.00507339
0.00508967
0.00510573
0.00512157
0.00513721
0.00515265
0.00516789
0.00518295
0.00519782
0.00521252
0.00522704
0.00524139
0.00525556
0.00526957
0.00528342
0.00529709
0.0053106
0.00532394
0.00533712
0.00535013
0.00536296
0.00537563
0.00538812
0.00540043
0.00541257
0.00542452
0.00543629
0.00544787
0.00545926
0.00547045
0.00548144
0.00549223
0.0055028
0.00551316
0.00552331
0.00553323
0.00554292
0.00555237
0.00556159
0.00557056
0.00557929
0.00558775
0.00559596
0.00560389
0.00561156
0.00561894
0.00562604
0.00563284
0.00563935
0.00564555
0.00565144
0.00565701
0.00566226
0.00566718
0.00567176
0.005676
0.00567989
0.00568341
0.00568658
0.00568937
0.00569179
0.00569382
0.00569546
0.0056967
0.00569753
0.00569795
0.00298345
0.00170573
0.00150404
0.00170441
0.00199678
0.00226913
0.00250177
0.00269962
0.00287048
0.00302063
0.00315453
0.00327535
0.00338535
0.00348619
0.00357912
0.00366514
0.00374503
0.00381944
0.00388892
0.00395394
0.00401492
0.00407221
0.00412614
0.00417698
0.004225
0.00427041
0.00431344
0.00435428
0.00439308
0.00443001
0.00446521
0.00449881
0.00453093
0.00456168
0.00459116
0.00461946
0.00464667
0.00467287
0.00469812
0.00472249
0.00474605
0.00476886
0.00479095
0.00481239
0.00483322
0.00485348
0.00487321
0.00489244
0.00491121
0.00492954
0.00494747
0.00496503
0.00498223
0.00499909
0.00501565
0.00503192
0.0050479
0.00506363
0.00507912
0.00509437
0.00510941
0.00512423
0.00513886
0.0051533
0.00516755
0.00518163
0.00519554
0.00520929
0.00522288
0.00523631
0.00524959
0.00526272
0.00527571
0.00528855
0.00530124
0.00531379
0.0053262
0.00533846
0.00535057
0.00536253
0.00537435
0.00538601
0.00539752
0.00540888
0.00542007
0.0054311
0.00544197
0.00545266
0.00546318
0.00547352
0.00548367
0.00549364
0.00550341
0.00551299
0.00552236
0.00553153
0.00554048
0.00554921
0.00555772
0.00556599
0.00557403
0.00558182
0.00558937
0.00559666
0.00560369
0.00561045
0.00561693
0.00562314
0.00562906
0.00563468
0.00564
0.00564502
0.00564972
0.0056541
0.00565815
0.00566187
0.00566525
0.00566828
0.00567096
0.00567327
0.00567522
0.00567679
0.00567797
0.00567877
0.00567918
0.00308278
0.00175995
0.00155569
0.00176448
0.00206405
0.00234055
0.00257514
0.00277359
0.00294427
0.00309379
0.00322683
0.00334669
0.0034557
0.00355556
0.00364756
0.00373268
0.0038117
0.00388527
0.00395394
0.00401817
0.00407835
0.00413484
0.00418796
0.00423797
0.00428514
0.00432969
0.00437182
0.00441173
0.00444957
0.00448552
0.00451971
0.00455226
0.00458331
0.00461296
0.00464132
0.00466847
0.00469451
0.00471951
0.00474354
0.00476669
0.004789
0.00481054
0.00483136
0.00485151
0.00487105
0.00489
0.00490842
0.00492633
0.00494378
0.0049608
0.00497741
0.00499364
0.00500952
0.00502508
0.00504033
0.00505529
0.00506998
0.00508443
0.00509863
0.00511262
0.0051264
0.00513999
0.00515339
0.00516661
0.00517967
0.00519256
0.00520531
0.00521791
0.00523037
0.00524269
0.00525487
0.00526693
0.00527886
0.00529067
0.00530235
0.00531391
0.00532534
0.00533665
0.00534783
0.00535889
0.00536982
0.00538062
0.00539129
0.00540182
0.00541222
0.00542248
0.00543259
0.00544255
0.00545236
0.00546201
0.0054715
0.00548082
0.00548998
0.00549895
0.00550774
0.00551635
0.00552476
0.00553297
0.00554098
0.00554878
0.00555636
0.00556372
0.00557084
0.00557773
0.00558438
0.00559078
0.00559692
0.0056028
0.00560842
0.00561375
0.00561881
0.00562357
0.00562804
0.0056322
0.00563606
0.0056396
0.00564281
0.0056457
0.00564825
0.00565045
0.00565231
0.0056538
0.00565493
0.0056557
0.00565608
0.00317793
0.00181187
0.00160527
0.00182211
0.00212845
0.00240879
0.00264514
0.00284407
0.00301448
0.00316329
0.0032954
0.00341423
0.0035222
0.00362103
0.00371204
0.00379622
0.00387435
0.00394707
0.00401492
0.00407835
0.00413775
0.00419347
0.00424581
0.00429504
0.00434141
0.00438514
0.00442643
0.00446547
0.00450243
0.00453745
0.00457069
0.00460228
0.00463233
0.00466095
0.00468825
0.00471432
0.00473925
0.00476312
0.00478601
0.00480798
0.00482911
0.00484944
0.00486904
0.00488796
0.00490624
0.00492394
0.00494108
0.00495772
0.00497389
0.00498962
0.00500494
0.00501988
0.00503447
0.00504873
0.00506269
0.00507637
0.00508978
0.00510295
0.00511589
0.00512862
0.00514114
0.00515349
0.00516565
0.00517766
0.00518951
0.00520121
0.00521278
0.00522422
0.00523553
0.00524672
0.00525779
0.00526875
0.00527961
0.00529035
0.00530099
0.00531153
0.00532196
0.00533229
0.00534252
0.00535264
0.00536265
0.00537256
0.00538235
0.00539204
0.0054016
0.00541105
0.00542037
0.00542957
0.00543864
0.00544757
0.00545636
0.00546501
0.00547351
0.00548185
0.00549003
0.00549805
0.00550589
0.00551355
0.00552103
0.00552833
0.00553542
0.00554231
0.00554899
0.00555546
0.0055617
0.00556772
0.00557349
0.00557903
0.00558432
0.00558935
0.00559411
0.00559861
0.00560283
0.00560676
0.0056104
0.00561375
0.00561679
0.00561952
0.00562193
0.00562402
0.00562577
0.00562719
0.00562826
0.00562899
0.00562935
0.00326923
0.00186168
0.00165297
0.00187749
0.00219021
0.00247412
0.00271207
0.00291139
0.00308144
0.00322948
0.00336061
0.00347836
0.00358522
0.00368297
0.00377295
0.00385614
0.00393335
0.0040052
0.00407221
0.00413484
0.00419347
0.00424843
0.00430001
0.00434849
0.00439409
0.00443705
0.00447755
0.00451579
0.00455191
0.00458608
0.00461844
0.00464912
0.00467823
0.0047059
0.00473221
0.00475727
0.00478116
0.00480397
0.00482577
0.00484664
0.00486663
0.00488582
0.00490426