/*--------------------------------*- C++ -*----------------------------------*\
| =========                 |                                                 |
| \\      /  F ield         | OpenFOAM: The Open Source CFD Toolbox           |
|  \\    /   O peration     | Version:  4.x                                   |
|   \\  /    A nd           | Web:      www.OpenFOAM.org                      |
|    \\/     M anipulation  |                                                 |
\*---------------------------------------------------------------------------*/
FoamFile
{
    version     2.0;
    format      ascii;
    class       volScalarField;
    location    "98.28";
    object      nut;
}
// * * * * * * * * * * * * * * * * * * * * * * * * * * * * * * * * * * * * * //

dimensions      [0 2 -1 0 0 0 0];

internalField   nonuniform List<scalar> 
15625
(
1.33273e-05
1.41284e-05
1.55814e-05
1.73405e-05
1.91607e-05
2.0914e-05
2.25457e-05
2.40394e-05
2.5397e-05
2.66289e-05
2.77481e-05
2.87679e-05
2.97009e-05
3.0558e-05
3.13489e-05
3.20818e-05
3.27638e-05
3.34008e-05
3.39978e-05
3.45591e-05
3.50884e-05
3.55888e-05
3.60632e-05
3.65138e-05
3.69427e-05
3.73517e-05
3.77424e-05
3.81163e-05
3.84746e-05
3.88183e-05
3.91486e-05
3.94663e-05
3.97722e-05
4.00671e-05
4.03517e-05
4.06265e-05
4.08921e-05
4.1149e-05
4.13977e-05
4.16386e-05
4.18722e-05
4.20987e-05
4.23186e-05
4.25321e-05
4.27395e-05
4.29411e-05
4.31372e-05
4.3328e-05
4.35137e-05
4.36945e-05
4.38706e-05
4.40422e-05
4.42095e-05
4.43726e-05
4.45316e-05
4.46867e-05
4.48381e-05
4.49859e-05
4.51301e-05
4.52709e-05
4.54084e-05
4.55427e-05
4.56739e-05
4.5802e-05
4.59272e-05
4.60495e-05
4.6169e-05
4.62858e-05
4.64e-05
4.65115e-05
4.66205e-05
4.67271e-05
4.68311e-05
4.69329e-05
4.70322e-05
4.71293e-05
4.72241e-05
4.73168e-05
4.74072e-05
4.74956e-05
4.75818e-05
4.76659e-05
4.7748e-05
4.78281e-05
4.79062e-05
4.79823e-05
4.80565e-05
4.81287e-05
4.81991e-05
4.82675e-05
4.83341e-05
4.83988e-05
4.84616e-05
4.85226e-05
4.85818e-05
4.86391e-05
4.86947e-05
4.87484e-05
4.88003e-05
4.88504e-05
4.88987e-05
4.89453e-05
4.899e-05
4.90329e-05
4.9074e-05
4.91133e-05
4.91507e-05
4.91864e-05
4.92202e-05
4.92522e-05
4.92823e-05
4.93105e-05
4.93369e-05
4.93614e-05
4.93839e-05
4.94045e-05
4.94232e-05
4.94399e-05
4.94547e-05
4.94674e-05
4.9478e-05
4.94866e-05
4.94931e-05
4.94975e-05
4.94997e-05
1.41284e-05
1.4164e-05
1.48265e-05
1.5816e-05
1.70894e-05
1.85084e-05
1.99462e-05
2.1327e-05
2.26162e-05
2.38033e-05
2.48906e-05
2.58857e-05
2.67984e-05
2.76384e-05
2.84147e-05
2.91351e-05
2.98067e-05
3.04352e-05
3.10256e-05
3.15822e-05
3.21085e-05
3.26077e-05
3.30823e-05
3.35348e-05
3.3967e-05
3.43808e-05
3.47776e-05
3.51588e-05
3.55255e-05
3.58789e-05
3.62199e-05
3.65493e-05
3.68679e-05
3.71763e-05
3.74753e-05
3.77653e-05
3.80468e-05
3.83204e-05
3.85865e-05
3.88454e-05
3.90976e-05
3.93433e-05
3.95828e-05
3.98165e-05
4.00445e-05
4.02672e-05
4.04848e-05
4.06974e-05
4.09053e-05
4.11086e-05
4.13076e-05
4.15023e-05
4.16929e-05
4.18795e-05
4.20623e-05
4.22414e-05
4.24169e-05
4.25889e-05
4.27575e-05
4.29228e-05
4.30849e-05
4.32438e-05
4.33997e-05
4.35526e-05
4.37025e-05
4.38495e-05
4.39938e-05
4.41352e-05
4.4274e-05
4.44101e-05
4.45436e-05
4.46745e-05
4.48028e-05
4.49287e-05
4.50521e-05
4.5173e-05
4.52915e-05
4.54076e-05
4.55214e-05
4.56328e-05
4.57419e-05
4.58487e-05
4.59532e-05
4.60554e-05
4.61553e-05
4.6253e-05
4.63484e-05
4.64416e-05
4.65326e-05
4.66213e-05
4.67078e-05
4.67921e-05
4.68742e-05
4.6954e-05
4.70316e-05
4.7107e-05
4.71801e-05
4.7251e-05
4.73196e-05
4.7386e-05
4.74501e-05
4.75119e-05
4.75714e-05
4.76286e-05
4.76835e-05
4.77361e-05
4.77862e-05
4.7834e-05
4.78794e-05
4.79224e-05
4.79629e-05
4.8001e-05
4.80365e-05
4.80696e-05
4.81001e-05
4.8128e-05
4.81532e-05
4.81759e-05
4.81958e-05
4.8213e-05
4.82275e-05
4.82391e-05
4.82479e-05
4.82538e-05
4.82568e-05
1.55814e-05
1.48265e-05
1.62476e-05
1.84591e-05
2.09543e-05
2.36093e-05
2.63002e-05
2.89154e-05
3.13863e-05
3.36832e-05
3.58018e-05
3.77511e-05
3.95458e-05
4.12025e-05
4.27371e-05
4.41641e-05
4.54963e-05
4.67448e-05
4.7919e-05
4.90272e-05
5.00763e-05
5.10723e-05
5.20205e-05
5.29254e-05
5.37909e-05
5.46204e-05
5.54169e-05
5.61831e-05
5.69214e-05
5.76339e-05
5.83224e-05
5.89886e-05
5.9634e-05
6.026e-05
6.08678e-05
6.14585e-05
6.20332e-05
6.25927e-05
6.31378e-05
6.36694e-05
6.41881e-05
6.46946e-05
6.51895e-05
6.56733e-05
6.61465e-05
6.66095e-05
6.70629e-05
6.7507e-05
6.79421e-05
6.83686e-05
6.87868e-05
6.9197e-05
6.95994e-05
6.99944e-05
7.0382e-05
7.07627e-05
7.11365e-05
7.15036e-05
7.18642e-05
7.22185e-05
7.25666e-05
7.29087e-05
7.32448e-05
7.35752e-05
7.38998e-05
7.42189e-05
7.45324e-05
7.48406e-05
7.51434e-05
7.54409e-05
7.57333e-05
7.60205e-05
7.63026e-05
7.65797e-05
7.68518e-05
7.7119e-05
7.73813e-05
7.76387e-05
7.78912e-05
7.81389e-05
7.83819e-05
7.862e-05
7.88534e-05
7.9082e-05
7.93058e-05
7.95249e-05
7.97392e-05
7.99487e-05
8.01535e-05
8.03536e-05
8.05488e-05
8.07392e-05
8.09248e-05
8.11056e-05
8.12815e-05
8.14526e-05
8.16187e-05
8.17799e-05
8.1936e-05
8.20872e-05
8.22334e-05
8.23744e-05
8.25103e-05
8.26411e-05
8.27666e-05
8.28868e-05
8.30018e-05
8.31113e-05
8.32154e-05
8.3314e-05
8.3407e-05
8.34944e-05
8.35761e-05
8.36521e-05
8.37222e-05
8.37863e-05
8.38445e-05
8.38966e-05
8.39425e-05
8.39822e-05
8.40155e-05
8.40423e-05
8.40626e-05
8.40762e-05
8.40831e-05
1.73405e-05
1.5816e-05
1.84591e-05
2.40364e-05
3.08362e-05
3.77858e-05
4.44612e-05
5.06911e-05
5.64087e-05
6.16082e-05
6.63185e-05
7.05851e-05
7.4458e-05
7.79858e-05
8.12125e-05
8.41769e-05
8.69123e-05
8.94472e-05
9.18059e-05
9.4009e-05
9.60742e-05
9.80166e-05
9.98491e-05
0.000101583
0.000103228
0.000104793
0.000106284
0.000107709
0.000109074
0.000110382
0.00011164
0.00011285
0.000114017
0.000115143
0.000116232
0.000117286
0.000118308
0.000119299
0.000120262
0.000121197
0.000122108
0.000122995
0.00012386
0.000124703
0.000125526
0.000126331
0.000127117
0.000127886
0.000128638
0.000129375
0.000130096
0.000130803
0.000131496
0.000132176
0.000132843
0.000133497
0.000134139
0.00013477
0.000135389
0.000135997
0.000136594
0.000137181
0.000137758
0.000138325
0.000138882
0.000139429
0.000139967
0.000140496
0.000141015
0.000141526
0.000142028
0.000142521
0.000143006
0.000143482
0.00014395
0.000144409
0.00014486
0.000145303
0.000145737
0.000146164
0.000146582
0.000146992
0.000147394
0.000147789
0.000148174
0.000148552
0.000148922
0.000149284
0.000149638
0.000149983
0.000150321
0.00015065
0.000150971
0.000151283
0.000151588
0.000151884
0.000152172
0.000152451
0.000152721
0.000152983
0.000153237
0.000153481
0.000153717
0.000153944
0.000154162
0.00015437
0.00015457
0.00015476
0.000154941
0.000155112
0.000155274
0.000155426
0.000155568
0.0001557
0.000155822
0.000155933
0.000156034
0.000156125
0.000156205
0.000156274
0.000156332
0.000156379
0.000156414
0.000156438
0.00015645
1.91607e-05
1.70894e-05
2.09543e-05
3.08362e-05
4.46767e-05
5.94637e-05
7.34617e-05
8.61049e-05
9.73293e-05
0.00010724
0.00011599
0.000123737
0.000130625
0.000136778
0.000142304
0.000147292
0.000151819
0.000155947
0.000159729
0.00016321
0.000166426
0.00016941
0.000172188
0.000174785
0.000177219
0.000179508
0.000181667
0.000183709
0.000185645
0.000187486
0.00018924
0.000190914
0.000192517
0.000194053
0.000195529
0.000196949
0.000198318
0.000199639
0.000200916
0.000202153
0.000203352
0.000204515
0.000205646
0.000206746
0.000207817
0.000208861
0.000209879
0.000210873
0.000211845
0.000212795
0.000213724
0.000214634
0.000215526
0.0002164
0.000217257
0.000218098
0.000218923
0.000219733
0.000220529
0.000221311
0.000222079
0.000222835
0.000223577
0.000224308
0.000225026
0.000225732
0.000226427
0.00022711
0.000227782
0.000228444
0.000229094
0.000229734
0.000230363
0.000230982
0.000231591
0.000232189
0.000232777
0.000233355
0.000233923
0.00023448
0.000235028
0.000235566
0.000236093
0.000236611
0.000237118
0.000237616
0.000238103
0.00023858
0.000239047
0.000239503
0.000239949
0.000240385
0.00024081
0.000241225
0.000241629
0.000242022
0.000242404
0.000242776
0.000243136
0.000243485
0.000243823
0.000244149
0.000244464
0.000244767
0.000245058
0.000245338
0.000245605
0.000245859
0.000246102
0.000246331
0.000246548
0.000246752
0.000246943
0.00024712
0.000247284
0.000247433
0.000247569
0.000247691
0.000247799
0.000247892
0.000247969
0.000248032
0.00024808
0.000248112
0.000248128
2.0914e-05
1.85084e-05
2.36093e-05
3.77858e-05
5.94637e-05
8.37912e-05
0.000107094
0.00012798
0.000146253
0.000162133
0.000175939
0.00018798
0.000198531
0.000207824
0.000216053
0.000223377
0.00022993
0.000235821
0.000241142
0.000245971
0.00025037
0.000254395
0.000258093
0.000261501
0.000264655
0.000267583
0.000270311
0.00027286
0.000275249
0.000277495
0.000279613
0.000281614
0.000283511
0.000285314
0.000287031
0.00028867
0.000290238
0.000291742
0.000293186
0.000294577
0.000295917
0.000297213
0.000298466
0.000299681
0.000300859
0.000302005
0.00030312
0.000304206
0.000305266
0.000306301
0.000307312
0.000308302
0.000309271
0.00031022
0.000311152
0.000312066
0.000312963
0.000313845
0.000314712
0.000315564
0.000316403
0.000317228
0.000318041
0.000318841
0.000319629
0.000320406
0.000321171
0.000321925
0.000322667
0.0003234
0.000324121
0.000324832
0.000325533
0.000326223
0.000326903
0.000327573
0.000328233
0.000328883
0.000329522
0.000330152
0.000330771
0.00033138
0.000331979
0.000332567
0.000333145
0.000333712
0.000334269
0.000334815
0.000335351
0.000335875
0.000336388
0.00033689
0.000337381
0.00033786
0.000338328
0.000338783
0.000339227
0.000339659
0.000340078
0.000340485
0.000340879
0.00034126
0.000341628
0.000341982
0.000342323
0.000342651
0.000342964
0.000343263
0.000343548
0.000343819
0.000344074
0.000344314
0.000344539
0.000344748
0.000344941
0.000345118
0.000345279
0.000345423
0.00034555
0.00034566
0.000345752
0.000345827
0.000345883
0.000345921
0.00034594
2.25457e-05
1.99462e-05
2.63002e-05
4.44612e-05
7.34617e-05
0.000107094
0.000139917
0.000169573
0.000195569
0.000218129
0.000237676
0.00025465
0.00026944
0.000282384
0.000293762
0.000303807
0.000312714
0.000320646
0.000327737
0.000334101
0.000339835
0.000345019
0.000349722
0.000354004
0.000357916
0.0003615
0.000364796
0.000367835
0.000370647
0.000373256
0.000375684
0.000377951
0.000380073
0.000382066
0.000383942
0.000385713
0.000387389
0.000388981
0.000390496
0.000391941
0.000393323
0.000394648
0.000395922
0.000397148
0.000398332
0.000399476
0.000400585
0.000401661
0.000402707
0.000403726
0.00040472
0.000405691
0.00040664
0.00040757
0.000408481
0.000409376
0.000410254
0.000411118
0.000411968
0.000412805
0.000413629
0.000414442
0.000415244
0.000416035
0.000416816
0.000417588
0.000418349
0.000419102
0.000419845
0.00042058
0.000421306
0.000422023
0.000422732
0.000423432
0.000424124
0.000424807
0.000425482
0.000426149
0.000426807
0.000427456
0.000428096
0.000428728
0.00042935
0.000429964
0.000430568
0.000431162
0.000431747
0.000432322
0.000432886
0.000433441
0.000433985
0.000434518
0.00043504
0.000435552
0.000436051
0.000436539
0.000437015
0.000437479
0.00043793
0.000438369
0.000438795
0.000439207
0.000439606
0.00043999
0.000440361
0.000440717
0.000441059
0.000441385
0.000441696
0.000441991
0.000442271
0.000442534
0.00044278
0.00044301
0.000443222
0.000443417
0.000443593
0.000443752
0.000443892
0.000444012
0.000444114
0.000444196
0.000444258
0.0004443
0.000444321
2.40394e-05
2.1327e-05
2.89154e-05
5.06911e-05
8.61049e-05
0.00012798
0.000169573
0.00020768
0.00024142
0.000270906
0.000296573
0.000318921
0.00033842
0.000355481
0.000370458
0.000383648
0.000395302
0.000405631
0.000414815
0.000423004
0.000430327
0.000436894
0.000442798
0.000448121
0.000452932
0.000457292
0.000461253
0.000464861
0.000468156
0.000471173
0.000473942
0.000476491
0.000478844
0.000481021
0.000483042
0.000484922
0.000486677
0.00048832
0.000489862
0.000491314
0.000492686
0.000493985
0.000495219
0.000496394
0.000497517
0.000498593
0.000499627
0.000500623
0.000501585
0.000502517
0.000503421
0.0005043
0.000505157
0.000505994
0.000506813
0.000507615
0.000508403
0.000509178
0.00050994
0.000510692
0.000511434
0.000512166
0.00051289
0.000513606
0.000514315
0.000515018
0.000515713
0.000516403
0.000517087
0.000517765
0.000518437
0.000519105
0.000519766
0.000520423
0.000521074
0.00052172
0.00052236
0.000522994
0.000523623
0.000524246
0.000524863
0.000525473
0.000526077
0.000526674
0.000527264
0.000527846
0.000528422
0.000528989
0.000529548
0.000530098
0.00053064
0.000531173
0.000531696
0.000532209
0.000532712
0.000533205
0.000533687
0.000534157
0.000534616
0.000535063
0.000535498
0.00053592
0.000536329
0.000536724
0.000537106
0.000537473
0.000537826
0.000538163
0.000538485
0.000538792
0.000539082
0.000539355
0.000539612
0.000539851
0.000540072
0.000540276
0.00054046
0.000540626
0.000540772
0.000540899
0.000541005
0.000541091
0.000541156
0.0005412
0.000541222
2.5397e-05
2.26162e-05
3.13863e-05
5.64087e-05
9.73293e-05
0.000146253
0.000195569
0.00024142
0.000282542
0.000318859
0.00035074
0.000378685
0.000403194
0.000424721
0.000443668
0.00046038
0.000475153
0.000488241
0.000499859
0.000510194
0.000519405
0.000527629
0.000534985
0.000541577
0.000547492
0.000552811
0.000557599
0.000561919
0.000565821
0.000569352
0.000572554
0.000575461
0.000578107
0.000580519
0.000582722
0.00058474
0.000586591
0.000588295
0.000589866
0.000591319
0.000592667
0.000593921
0.000595091
0.000596188
0.000597217
0.000598189
0.000599107
0.00059998
0.000600812
0.000601608
0.000602372
0.000603108
0.000603819
0.000604509
0.00060518
0.000605835
0.000606476
0.000607105
0.000607723
0.000608333
0.000608934
0.00060953
0.000610119
0.000610705
0.000611286
0.000611864
0.000612439
0.000613012
0.000613583
0.000614153
0.000614721
0.000615287
0.000615852
0.000616416
0.000616979
0.00061754
0.000618099
0.000618657
0.000619212
0.000619766
0.000620317
0.000620866
0.000621411
0.000621953
0.000622491
0.000623026
0.000623556
0.000624081
0.0006246
0.000625114
0.000625622
0.000626124
0.000626618
0.000627105
0.000627585
0.000628055
0.000628517
0.00062897
0.000629413
0.000629846
0.000630268
0.000630678
0.000631078
0.000631464
0.000631839
0.0006322
0.000632547
0.00063288
0.000633199
0.000633502
0.00063379
0.000634062
0.000634318
0.000634556
0.000634777
0.00063498
0.000635165
0.000635331
0.000635477
0.000635604
0.000635711
0.000635797
0.000635863
0.000635907
0.000635929
2.66289e-05
2.38033e-05
3.36832e-05
6.16082e-05
0.00010724
0.000162133
0.000218129
0.000270906
0.000318859
0.000361696
0.000399676
0.000433247
0.000462899
0.0004891
0.000512274
0.000532796
0.000550994
0.000567152
0.000581517
0.000594302
0.000605695
0.000615858
0.000624932
0.00063304
0.000640292
0.000646783
0.000652596
0.000657807
0.000662479
0.000666672
0.000670437
0.00067382
0.000676862
0.000679599
0.000682063
0.000684284
0.000686287
0.000688096
0.000689732
0.000691214
0.000692558
0.000693779
0.000694892
0.000695908
0.000696838
0.000697693
0.000698481
0.00069921
0.000699887
0.00070052
0.000701113
0.000701672
0.000702202
0.000702707
0.000703191
0.000703657
0.000704108
0.000704546
0.000704975
0.000705396
0.000705811
0.000706222
0.00070663
0.000707037
0.000707442
0.000707848
0.000708255
0.000708664
0.000709075
0.000709489
0.000709906
0.000710325
0.000710748
0.000711175
0.000711604
0.000712037
0.000712473
0.000712911
0.000713353
0.000713797
0.000714243
0.00071469
0.000715139
0.000715589
0.00071604
0.00071649
0.00071694
0.00071739
0.000717838
0.000718284
0.000718727
0.000719167
0.000719604
0.000720037
0.000720465
0.000720888
0.000721305
0.000721715
0.000722119
0.000722515
0.000722902
0.000723281
0.00072365
0.000724009
0.000724358
0.000724695
0.000725021
0.000725334
0.000725635
0.000725922
0.000726194
0.000726453
0.000726695
0.000726923
0.000727134
0.000727328
0.000727505
0.000727664
0.000727804
0.000727926
0.000728029
0.000728112
0.000728175
0.000728217
0.000728238
2.77481e-05
2.48906e-05
3.58018e-05
6.63185e-05
0.00011599
0.000175939
0.000237676
0.000296573
0.00035074
0.000399676
0.0004435
0.000482582
0.000517373
0.000548328
0.000575873
0.000600395
0.00062224
0.000641711
0.000659078
0.000674577
0.000688416
0.000700777
0.000711822
0.000721692
0.000730514
0.000738399
0.000745446
0.000751743
0.000757368
0.000762392
0.000766876
0.000770877
0.000774444
0.000777623
0.000780453
0.000782971
0.000785209
0.000787198
0.000788962
0.000790526
0.000791912
0.000793139
0.000794224
0.000795183
0.00079603
0.000796779
0.000797441
0.000798026
0.000798544
0.000799004
0.000799414
0.000799779
0.000800108
0.000800405
0.000800675
0.000800923
0.000801153
0.000801369
0.000801574
0.000801771
0.000801963
0.000802151
0.000802338
0.000802526
0.000802715
0.000802908
0.000803106
0.000803309
0.000803518
0.000803734
0.000803957
0.000804188
0.000804427
0.000804675
0.00080493
0.000805194
0.000805466
0.000805746
0.000806034
0.00080633
0.000806633
0.000806942
0.000807258
0.00080758
0.000807908
0.00080824
0.000808577
0.000808918
0.000809262
0.000809609
0.000809957
0.000810307
0.000810658
0.000811009
0.000811359
0.000811707
0.000812054
0.000812398
0.000812738
0.000813074
0.000813406
0.000813731
0.000814051
0.000814363
0.000814668
0.000814964
0.000815252
0.000815529
0.000815796
0.000816052
0.000816297
0.000816529
0.000816747
0.000816953
0.000817144
0.00081732
0.000817481
0.000817626
0.000817754
0.000817866
0.00081796
0.000818036
0.000818093
0.000818132
0.000818151
2.87679e-05
2.58857e-05
3.77511e-05
7.05851e-05
0.000123737
0.00018798
0.00025465
0.000318921
0.000378685
0.000433247
0.000482582
0.000526965
0.000566789
0.000602476
0.000634438
0.00066306
0.000688691
0.000711648
0.000732212
0.000750634
0.000767137
0.00078192
0.000795161
0.000807017
0.000817628
0.000827121
0.000835608
0.000843188
0.000849954
0.000855985
0.000861355
0.00086613
0.000870368
0.000874123
0.000877443
0.000880372
0.000882949
0.00088521
0.000887186
0.000888909
0.000890402
0.000891692
0.0008928
0.000893745
0.000894546
0.000895218
0.000895777
0.000896237
0.000896608
0.000896903
0.000897131
0.000897301
0.000897423
0.000897502
0.000897545
0.00089756
0.000897551
0.000897523
0.000897481
0.000897428
0.000897368
0.000897304
0.000897239
0.000897176
0.000897116
0.000897062
0.000897014
0.000896975
0.000896946
0.000896927
0.00089692
0.000896925
0.000896943
0.000896974
0.000897018
0.000897075
0.000897146
0.000897231
0.000897328
0.000897439
0.000897563
0.000897699
0.000897847
0.000898006
0.000898177
0.000898358
0.000898549
0.000898749
0.000898958
0.000899175
0.000899399
0.000899629
0.000899865
0.000900106
0.000900351
0.0009006
0.000900851
0.000901103
0.000901357
0.000901611
0.000901864
0.000902116
0.000902365
0.000902611
0.000902853
0.000903091
0.000903323
0.000903548
0.000903767
0.000903978
0.00090418
0.000904373
0.000904556
0.000904729
0.00090489
0.000905039
0.000905176
0.000905299
0.000905409
0.000905504
0.000905584
0.00090565
0.000905699
0.000905732
0.000905749
2.97009e-05
2.67984e-05
3.95458e-05
7.4458e-05
0.000130625
0.000198531
0.00026944
0.00033842
0.000403194
0.000462899
0.000517373
0.000566789
0.00061147
0.000651791
0.000688139
0.000720884
0.000750372
0.000776919
0.000800812
0.000822312
0.000841651
0.00085904
0.000874667
0.000888703
0.0009013
0.000912595
0.000922713
0.000931766
0.000939853
0.000947068
0.000953492
0.0009592
0.00096426
0.000968735
0.000972679
0.000976144
0.000979176
0.000981816
0.000984105
0.000986075
0.00098776
0.000989187
0.000990385
0.000991375
0.000992182
0.000992823
0.000993319
0.000993685
0.000993937
0.000994089
0.000994153
0.00099414
0.000994061
0.000993926
0.000993743
0.00099352
0.000993264
0.000992982
0.000992679
0.00099236
0.00099203
0.000991694
0.000991355
0.000991016
0.00099068
0.000990351
0.00099003
0.000989719
0.000989421
0.000989136
0.000988866
0.000988612
0.000988374
0.000988155
0.000987953
0.00098777
0.000987605
0.00098746
0.000987333
0.000987225
0.000987135
0.000987064
0.00098701
0.000986974
0.000986956
0.000986953
0.000986966
0.000986995
0.000987038
0.000987095
0.000987165
0.000987247
0.00098734
0.000987444
0.000987558
0.00098768
0.00098781
0.000987948
0.000988091
0.00098824
0.000988392
0.000988549
0.000988707
0.000988868
0.000989028
0.000989189
0.000989349
0.000989506
0.000989661
0.000989812
0.000989959
0.0009901
0.000990235
0.000990363
0.000990484
0.000990597
0.000990701
0.000990795
0.000990879
0.000990952
0.000991015
0.000991065
0.000991104
0.00099113
0.000991143
3.0558e-05
2.76384e-05
4.12025e-05
7.79858e-05
0.000136778
0.000207824
0.000282384
0.000355481
0.000424721
0.0004891
0.000548328
0.000602476
0.000651791
0.000696597
0.000737242
0.000774075
0.000807429
0.000837614
0.000864916
0.000889598
0.000911898
0.000932033
0.000950199
0.000966577
0.000981326
0.000994595
0.00100652
0.00101721
0.00102679
0.00103536
0.001043
0.0010498
0.00105583
0.00106117
0.00106587
0.00107001
0.00107362
0.00107675
0.00107946
0.00108178
0.00108375
0.0010854
0.00108677
0.00108788
0.00108875
0.00108942
0.00108991
0.00109023
0.0010904
0.00109044
0.00109037
0.0010902
0.00108994
0.00108961
0.00108921
0.00108876
0.00108826
0.00108772
0.00108715
0.00108656
0.00108595
0.00108533
0.0010847
0.00108407
0.00108344
0.00108282
0.0010822
0.0010816
0.001081
0.00108043
0.00107986
0.00107932
0.0010788
0.0010783
0.00107782
0.00107737
0.00107694
0.00107653
0.00107615
0.00107579
0.00107546
0.00107515
0.00107486
0.0010746
0.00107436
0.00107414
0.00107395
0.00107377
0.00107362
0.00107349
0.00107337
0.00107328
0.0010732
0.00107314
0.0010731
0.00107307
0.00107305
0.00107305
0.00107306
0.00107308
0.00107311
0.00107315
0.0010732
0.00107325
0.00107332
0.00107338
0.00107345
0.00107352
0.0010736
0.00107368
0.00107375
0.00107383
0.0010739
0.00107398
0.00107405
0.00107411
0.00107418
0.00107423
0.00107428
0.00107433
0.00107437
0.0010744
0.00107443
0.00107444
0.00107445
3.13489e-05
2.84147e-05
4.27371e-05
8.12125e-05
0.000142304
0.000216053
0.000293762
0.000370458
0.000443668
0.000512274
0.000575873
0.000634438
0.000688139
0.000737242
0.000782055
0.000822896
0.000860078
0.000893901
0.000924645
0.000952568
0.000977911
0.00100089
0.00102172
0.00104056
0.0010576
0.00107299
0.00108686
0.00109936
0.00111058
0.00112065
0.00112965
0.00113769
0.00114485
0.00115119
0.00115679
0.00116172
0.00116604
0.00116979
0.00117303
0.00117581
0.00117816
0.00118014
0.00118176
0.00118307
0.00118409
0.00118486
0.00118539
0.00118573
0.00118587
0.00118585
0.00118569
0.00118539
0.00118499
0.00118448
0.00118389
0.00118322
0.00118249
0.00118171
0.00118088
0.00118002
0.00117913
0.00117822
0.0011773
0.00117637
0.00117543
0.0011745
0.00117357
0.00117265
0.00117174
0.00117085
0.00116998
0.00116913
0.0011683
0.00116749
0.00116671
0.00116596
0.00116523
0.00116454
0.00116387
0.00116323
0.00116262
0.00116205
0.0011615
0.00116098
0.00116049
0.00116003
0.0011596
0.00115919
0.00115882
0.00115847
0.00115814
0.00115785
0.00115757
0.00115732
0.00115709
0.00115689
0.0011567
0.00115654
0.00115639
0.00115626
0.00115614
0.00115605
0.00115596
0.00115589
0.00115583
0.00115579
0.00115575
0.00115572
0.0011557
0.00115569
0.00115568
0.00115568
0.00115568
0.00115569
0.00115569
0.00115571
0.00115572
0.00115573
0.00115574
0.00115575
0.00115577
0.00115577
0.00115578
0.00115579
0.00115579
3.20818e-05
2.91351e-05
4.41641e-05
8.41769e-05
0.000147292
0.000223377
0.000303807
0.000383648
0.00046038
0.000532796
0.000600395
0.00066306
0.000720884
0.000774075
0.000822896
0.00086763
0.000908568
0.000945992
0.000980171
0.00101136
0.00103979
0.00106568
0.00108925
0.00111066
0.0011301
0.00114772
0.00116367
0.00117809
0.00119109
0.0012028
0.00121331
0.00122273
0.00123113
0.00123862
0.00124525
0.00125111
0.00125625
0.00126074
0.00126463
0.00126797
0.00127082
0.00127321
0.00127518
0.00127678
0.00127803
0.00127897
0.00127963
0.00128004
0.00128022
0.00128019
0.00127998
0.00127961
0.0012791
0.00127845
0.0012777
0.00127684
0.0012759
0.0012749
0.00127383
0.00127271
0.00127154
0.00127035
0.00126913
0.0012679
0.00126665
0.0012654
0.00126416
0.00126291
0.00126168
0.00126046
0.00125926
0.00125808
0.00125692
0.00125579
0.00125469
0.00125361
0.00125257
0.00125156
0.00125058
0.00124964
0.00124873
0.00124785
0.00124702
0.00124621
0.00124545
0.00124472
0.00124402
0.00124336
0.00124273
0.00124214
0.00124158
0.00124105
0.00124055
0.00124009
0.00123965
0.00123924
0.00123886
0.00123851
0.00123818
0.00123788
0.0012376
0.00123734
0.00123711
0.00123689
0.00123669
0.00123651
0.00123635
0.00123621
0.00123607
0.00123596
0.00123585
0.00123576
0.00123568
0.0012356
0.00123554
0.00123549
0.00123544
0.0012354
0.00123536
0.00123534
0.00123531
0.0012353
0.00123528
0.00123527
0.00123527
3.27638e-05
2.98067e-05
4.54963e-05
8.69123e-05
0.000151819
0.00022993
0.000312714
0.000395302
0.000475153
0.000550994
0.00062224
0.000688691
0.000750372
0.000807429
0.000860078
0.000908568
0.000953162
0.00099412
0.0010317
0.00106614
0.00109767
0.00112651
0.00115287
0.00117691
0.00119883
0.00121878
0.00123691
0.00125336
0.00126826
0.00128172
0.00129386
0.00130478
0.00131457
0.00132331
0.0013311
0.001338
0.00134409
0.00134944
0.00135409
0.00135811
0.00136155
0.00136446
0.00136688
0.00136885
0.00137042
0.00137162
0.00137248
0.00137304
0.00137332
0.00137335
0.00137316
0.00137276
0.00137218
0.00137144
0.00137056
0.00136956
0.00136844
0.00136723
0.00136594
0.00136458
0.00136316
0.0013617
0.0013602
0.00135866
0.00135711
0.00135555
0.00135398
0.0013524
0.00135084
0.00134928
0.00134774
0.00134622
0.00134472
0.00134324
0.0013418
0.00134038
0.001339
0.00133766
0.00133635
0.00133508
0.00133384
0.00133265
0.0013315
0.00133039
0.00132932
0.00132829
0.00132731
0.00132636
0.00132546
0.0013246
0.00132377
0.00132299
0.00132225
0.00132154
0.00132087
0.00132024
0.00131964
0.00131908
0.00131855
0.00131805
0.00131758
0.00131714
0.00131674
0.00131636
0.001316
0.00131567
0.00131537
0.00131509
0.00131483
0.00131459
0.00131437
0.00131418
0.001314
0.00131383
0.00131369
0.00131356
0.00131344
0.00131334
0.00131325
0.00131318
0.00131312
0.00131307
0.00131303
0.00131301
0.001313
3.34008e-05
3.04352e-05
4.67448e-05
8.94472e-05
0.000155947
0.000235821
0.000320646
0.000405631
0.000488241
0.000567152
0.000641711
0.000711648
0.000776919
0.000837614
0.000893901
0.000945992
0.00099412
0.00103852
0.00107944
0.0011171
0.00115172
0.00118352
0.00121268
0.00123941
0.00126386
0.00128621
0.0013066
0.00132517
0.00134205
0.00135737
0.00137124
0.00138377
0.00139505
0.00140517
0.00141423
0.00142229
0.00142944
0.00143574
0.00144127
0.00144607
0.00145021
0.00145374
0.00145671
0.00145915
0.00146113
0.00146267
0.00146382
0.0014646
0.00146505
0.0014652
0.00146509
0.00146472
0.00146414
0.00146336
0.0014624
0.00146129
0.00146003
0.00145865
0.00145717
0.0014556
0.00145395
0.00145223
0.00145046
0.00144864
0.00144679
0.00144492
0.00144303
0.00144113
0.00143923
0.00143733
0.00143544
0.00143357
0.00143172
0.00142989
0.00142809
0.00142632
0.00142459
0.00142289
0.00142123
0.00141961
0.00141803
0.0014165
0.00141502
0.00141358
0.00141218
0.00141084
0.00140954
0.00140829
0.00140708
0.00140593
0.00140482
0.00140376
0.00140274
0.00140177
0.00140084
0.00139996
0.00139912
0.00139833
0.00139757
0.00139686
0.00139618
0.00139555
0.00139495
0.00139438
0.00139385
0.00139336
0.00139289
0.00139246
0.00139206
0.00139169
0.00139135
0.00139103
0.00139074
0.00139047
0.00139023
0.00139002
0.00138983
0.00138966
0.00138951
0.00138938
0.00138928
0.00138919
0.00138913
0.00138909
0.00138907
3.39978e-05
3.10256e-05
4.7919e-05
9.18059e-05
0.000159729
0.000241142
0.000327737
0.000414815
0.000499859
0.000581517
0.000659078
0.000732212
0.000800812
0.000864916
0.000924645
0.000980171
0.0010317
0.00107944
0.00112361
0.00116443
0.00120211
0.00123684
0.00126883
0.00129825
0.00132528
0.00135007
0.00137277
0.00139353
0.00141248
0.00142974
0.00144543
0.00145966
0.00147252
0.00148412
0.00149455
0.00150388
0.00151219
0.00151956
0.00152606
0.00153175
0.00153669
0.00154093
0.00154454
0.00154755
0.00155002
0.001552
0.00155351
0.00155459
0.0015553
0.00155564
0.00155567
0.00155541
0.00155488
0.00155411
0.00155312
0.00155194
0.00155059
0.00154909
0.00154745
0.0015457
0.00154384
0.0015419
0.00153988
0.0015378
0.00153566
0.00153349
0.00153129
0.00152907
0.00152684
0.00152461
0.00152237
0.00152015
0.00151794
0.00151575
0.00151359
0.00151146
0.00150936
0.00150729
0.00150527
0.00150329
0.00150135
0.00149946
0.00149762
0.00149584
0.0014941
0.00149241
0.00149078
0.0014892
0.00148767
0.0014862
0.00148479
0.00148342
0.00148211
0.00148086
0.00147965
0.0014785
0.0014774
0.00147635
0.00147535
0.0014744
0.00147349
0.00147264
0.00147183
0.00147106
0.00147034
0.00146966
0.00146902
0.00146842
0.00146786
0.00146734
0.00146685
0.0014664
0.00146599
0.00146561
0.00146527
0.00146496
0.00146468
0.00146443
0.00146422
0.00146403
0.00146388
0.00146376
0.00146366
0.0014636
0.00146357
3.45591e-05
3.15822e-05
4.90272e-05
9.4009e-05
0.00016321
0.000245971
0.000334101
0.000423004
0.000510194
0.000594302
0.000674577
0.000750634
0.000822312
0.000889598
0.000952568
0.00101136
0.00106614
0.0011171
0.00116443
0.00120834
0.00124902
0.00128666
0.00132146
0.00135358
0.00138319
0.00141044
0.0014355
0.0014585
0.00147957
0.00149884
0.00151642
0.00153243
0.00154696
0.00156013
0.00157201
0.00158269
0.00159227
0.0016008
0.00160837
0.00161504
0.00162087
0.00162593
0.00163027
0.00163394
0.001637
0.00163948
0.00164144
0.00164291
0.00164394
0.00164456
0.0016448
0.0016447
0.00164429
0.00164359
0.00164264
0.00164145
0.00164005
0.00163847
0.00163672
0.00163482
0.00163279
0.00163065
0.00162841
0.00162609
0.0016237
0.00162125
0.00161876
0.00161623
0.00161368
0.00161111
0.00160853
0.00160596
0.0016034
0.00160085
0.00159832
0.00159581
0.00159334
0.0015909
0.0015885
0.00158615
0.00158384
0.00158158
0.00157937
0.00157722
0.00157512
0.00157307
0.00157109
0.00156916
0.00156729
0.00156549
0.00156374
0.00156206
0.00156043
0.00155887
0.00155737
0.00155593
0.00155454
0.00155322
0.00155195
0.00155074
0.00154959
0.0015485
0.00154745
0.00154647
0.00154553
0.00154465
0.00154382
0.00154303
0.0015423
0.00154162
0.00154098
0.00154039
0.00153984
0.00153934
0.00153888
0.00153846
0.00153809
0.00153775
0.00153746
0.00153722
0.00153701
0.00153684
0.00153672
0.00153663
0.00153659
3.50884e-05
3.21085e-05
5.00763e-05
9.60742e-05
0.000166426
0.00025037
0.000339835
0.000430327
0.000519405
0.000605695
0.000688416
0.000767137
0.000841651
0.000911898
0.000977911
0.00103979