/*--------------------------------*- C++ -*----------------------------------*\
| =========                 |                                                 |
| \\      /  F ield         | OpenFOAM: The Open Source CFD Toolbox           |
|  \\    /   O peration     | Version:  4.x                                   |
|   \\  /    A nd           | Web:      www.OpenFOAM.org                      |
|    \\/     M anipulation  |                                                 |
\*---------------------------------------------------------------------------*/
FoamFile
{
    version     2.0;
    format      ascii;
    class       volScalarField;
    location    "98.28";
    object      p;
}
// * * * * * * * * * * * * * * * * * * * * * * * * * * * * * * * * * * * * * //

dimensions      [0 2 -2 0 0 0 0];

internalField   nonuniform List<scalar> 
15625
(
2.63583e-16
6.04585e-16
6.7597e-16
6.91598e-16
7.01407e-16
7.07543e-16
7.11138e-16
7.13561e-16
7.15417e-16
7.16981e-16
7.18331e-16
7.19523e-16
7.20606e-16
7.21593e-16
7.22494e-16
7.23372e-16
7.24152e-16
7.24922e-16
7.25632e-16
7.26299e-16
7.26935e-16
7.27556e-16
7.28164e-16
7.28774e-16
7.29339e-16
7.29881e-16
7.30422e-16
7.3097e-16
7.31504e-16
7.32005e-16
7.32523e-16
7.3301e-16
7.33483e-16
7.33941e-16
7.34404e-16
7.34801e-16
7.35203e-16
7.35623e-16
7.36025e-16
7.36415e-16
7.36834e-16
7.37249e-16
7.37626e-16
7.37998e-16
7.38375e-16
7.38727e-16
7.39074e-16
7.39427e-16
7.39773e-16
7.4015e-16
7.40489e-16
7.40771e-16
7.41071e-16
7.41391e-16
7.41694e-16
7.41993e-16
7.42249e-16
7.42494e-16
7.42728e-16
7.42953e-16
7.43178e-16
7.43415e-16
7.43655e-16
7.43861e-16
7.44053e-16
7.44265e-16
7.44498e-16
7.4473e-16
7.44926e-16
7.45119e-16
7.45304e-16
7.45516e-16
7.45698e-16
7.45858e-16
7.46099e-16
7.4638e-16
7.46573e-16
7.46776e-16
7.46909e-16
7.47095e-16
7.47333e-16
7.47536e-16
7.47789e-16
7.47968e-16
7.48122e-16
7.48317e-16
7.48561e-16
7.48698e-16
7.48797e-16
7.48894e-16
7.48954e-16
7.49056e-16
7.49126e-16
7.49191e-16
7.49262e-16
7.49415e-16
7.49429e-16
7.49376e-16
7.4942e-16
7.49464e-16
7.49499e-16
7.49526e-16
7.49502e-16
7.49463e-16
7.49556e-16
7.49674e-16
7.49756e-16
7.49937e-16
7.50113e-16
7.50338e-16
7.50547e-16
7.50859e-16
7.51155e-16
7.51398e-16
7.51639e-16
7.51903e-16
7.52259e-16
7.52559e-16
7.52711e-16
7.52896e-16
7.53012e-16
7.53144e-16
7.53148e-16
7.53263e-16
7.53212e-16
6.04561e-16
6.62445e-16
6.84008e-16
6.93538e-16
7.00821e-16
7.06108e-16
7.09776e-16
7.12464e-16
7.14564e-16
7.16336e-16
7.17844e-16
7.19123e-16
7.20277e-16
7.21321e-16
7.22289e-16
7.23183e-16
7.23993e-16
7.24779e-16
7.25552e-16
7.26203e-16
7.26848e-16
7.27461e-16
7.28068e-16
7.28647e-16
7.29246e-16
7.29827e-16
7.30376e-16
7.30911e-16
7.31453e-16
7.31974e-16
7.32477e-16
7.32962e-16
7.33428e-16
7.33894e-16
7.34366e-16
7.34768e-16
7.35184e-16
7.35636e-16
7.36005e-16
7.3638e-16
7.36803e-16
7.37234e-16
7.37597e-16
7.37967e-16
7.38349e-16
7.38729e-16
7.39053e-16
7.39429e-16
7.39783e-16
7.4014e-16
7.40462e-16
7.40726e-16
7.41054e-16
7.41374e-16
7.41673e-16
7.41938e-16
7.42216e-16
7.42477e-16
7.42721e-16
7.42939e-16
7.43156e-16
7.43393e-16
7.43627e-16
7.43858e-16
7.44053e-16
7.44264e-16
7.44475e-16
7.44728e-16
7.44899e-16
7.45093e-16
7.45288e-16
7.4552e-16
7.45719e-16
7.45861e-16
7.461e-16
7.46403e-16
7.46577e-16
7.46784e-16
7.46927e-16
7.47111e-16
7.47326e-16
7.4752e-16
7.47807e-16
7.47963e-16
7.48156e-16
7.484e-16
7.48591e-16
7.48719e-16
7.48798e-16
7.48899e-16
7.48928e-16
7.4905e-16
7.49121e-16
7.4916e-16
7.49282e-16
7.49369e-16
7.49371e-16
7.49359e-16
7.49403e-16
7.49474e-16
7.49504e-16
7.4951e-16
7.49503e-16
7.49406e-16
7.49529e-16
7.49683e-16
7.49703e-16
7.49929e-16
7.50124e-16
7.5033e-16
7.50542e-16
7.50889e-16
7.51117e-16
7.51351e-16
7.51632e-16
7.51932e-16
7.52265e-16
7.52557e-16
7.52744e-16
7.52944e-16
7.5303e-16
7.53111e-16
7.53152e-16
7.53281e-16
7.53203e-16
6.75904e-16
6.83974e-16
6.89172e-16
6.95158e-16
7.00794e-16
7.0533e-16
7.08845e-16
7.11633e-16
7.13889e-16
7.15758e-16
7.17363e-16
7.18753e-16
7.19935e-16
7.21019e-16
7.22016e-16
7.22965e-16
7.23775e-16
7.24583e-16
7.25389e-16
7.2607e-16
7.26744e-16
7.27371e-16
7.27989e-16
7.28583e-16
7.29198e-16
7.29792e-16
7.3034e-16
7.30851e-16
7.31378e-16
7.31903e-16
7.32396e-16
7.32882e-16
7.33351e-16
7.3381e-16
7.34278e-16
7.34749e-16
7.35147e-16
7.35631e-16
7.35979e-16
7.36369e-16
7.36748e-16
7.37162e-16
7.37552e-16
7.37928e-16
7.38347e-16
7.38725e-16
7.39078e-16
7.3941e-16
7.39756e-16
7.40144e-16
7.40459e-16
7.4075e-16
7.41081e-16
7.41365e-16
7.4165e-16
7.41956e-16
7.42194e-16
7.42476e-16
7.42783e-16
7.42965e-16
7.43166e-16
7.43441e-16
7.43661e-16
7.43844e-16
7.44053e-16
7.44257e-16
7.44497e-16
7.4472e-16
7.44913e-16
7.45091e-16
7.45277e-16
7.45417e-16
7.45745e-16
7.45863e-16
7.46071e-16
7.46385e-16
7.46576e-16
7.46755e-16
7.46947e-16
7.47047e-16
7.47228e-16
7.47514e-16
7.47821e-16
7.4796e-16
7.4814e-16
7.4842e-16
7.48625e-16
7.48794e-16
7.48871e-16
7.48891e-16
7.48943e-16
7.49071e-16
7.49171e-16
7.49131e-16
7.49309e-16
7.49337e-16
7.49377e-16
7.49351e-16
7.49372e-16
7.49431e-16
7.49452e-16
7.49568e-16
7.49521e-16
7.49448e-16
7.49601e-16
7.49783e-16
7.49623e-16
7.49908e-16
7.50164e-16
7.50323e-16
7.50546e-16
7.50905e-16
7.51145e-16
7.51309e-16
7.51676e-16
7.51955e-16
7.52263e-16
7.52608e-16
7.52827e-16
7.52961e-16
7.53088e-16
7.53117e-16
7.53158e-16
7.53327e-16
7.53223e-16
6.91477e-16
6.93465e-16
6.95149e-16
6.98385e-16
7.02056e-16
7.05509e-16
7.08551e-16
7.11179e-16
7.13369e-16
7.15272e-16
7.16925e-16
7.1837e-16
7.19623e-16
7.20804e-16
7.21803e-16
7.22773e-16
7.23526e-16
7.24381e-16
7.25272e-16
7.25876e-16
7.26528e-16
7.2723e-16
7.27851e-16
7.28514e-16
7.29171e-16
7.29705e-16
7.30287e-16
7.30824e-16
7.31282e-16
7.31769e-16
7.32219e-16
7.32788e-16
7.33471e-16
7.33733e-16
7.34149e-16
7.34806e-16
7.35064e-16
7.35516e-16
7.35896e-16
7.36459e-16
7.36752e-16
7.37208e-16
7.37627e-16
7.37848e-16
7.38302e-16
7.3878e-16
7.39003e-16
7.39329e-16
7.39667e-16
7.40171e-16
7.40469e-16
7.40684e-16
7.41073e-16
7.41308e-16
7.41646e-16
7.42038e-16
7.42308e-16
7.42479e-16
7.42749e-16
7.42984e-16
7.43134e-16
7.43531e-16
7.43725e-16
7.43795e-16
7.44e-16
7.44404e-16
7.44651e-16
7.44765e-16
7.44974e-16
7.45253e-16
7.45216e-16
7.45292e-16
7.45665e-16
7.45949e-16
7.45979e-16
7.46203e-16
7.464e-16
7.46743e-16
7.46785e-16
7.47017e-16
7.47223e-16
7.47443e-16
7.47828e-16
7.47977e-16
7.48079e-16
7.48309e-16
7.48778e-16
7.48853e-16
7.48849e-16
7.48891e-16
7.49077e-16
7.49135e-16
7.49148e-16
7.49176e-16
7.49416e-16
7.49342e-16
7.49442e-16
7.49409e-16
7.49473e-16
7.49392e-16
7.49443e-16
7.49589e-16
7.49438e-16
7.49544e-16
7.49508e-16
7.49591e-16
7.49531e-16
7.4989e-16
7.50102e-16
7.50316e-16
7.50576e-16
7.5084e-16
7.5111e-16
7.51157e-16
7.51659e-16
7.52017e-16
7.52358e-16
7.52704e-16
7.52877e-16
7.52852e-16
7.53095e-16
7.53114e-16
7.5316e-16
7.53473e-16
7.53269e-16
7.01236e-16
7.007e-16
7.00715e-16
7.02015e-16
7.04027e-16
7.06363e-16
7.08762e-16
7.11023e-16
7.13063e-16
7.14841e-16
7.16544e-16
7.17947e-16
7.1924e-16
7.2044e-16
7.21556e-16
7.22458e-16
7.23367e-16
7.24245e-16
7.24991e-16
7.25634e-16
7.26384e-16
7.27078e-16
7.27652e-16
7.28506e-16
7.29028e-16
7.29627e-16
7.30109e-16
7.30674e-16
7.31273e-16
7.31762e-16
7.32248e-16
7.32802e-16
7.33504e-16
7.33702e-16
7.34081e-16
7.34655e-16
7.35024e-16
7.35372e-16
7.35804e-16
7.36333e-16
7.36691e-16
7.37175e-16
7.37604e-16
7.37783e-16
7.38313e-16
7.38658e-16
7.39033e-16
7.39353e-16
7.39773e-16
7.40099e-16
7.40507e-16
7.40591e-16
7.41053e-16
7.41536e-16
7.41579e-16
7.41949e-16
7.42122e-16
7.42446e-16
7.42805e-16
7.42953e-16
7.43128e-16
7.43461e-16
7.43729e-16
7.43857e-16
7.43993e-16
7.44341e-16
7.44286e-16
7.44817e-16
7.45012e-16
7.45109e-16
7.45272e-16
7.45442e-16
7.45566e-16
7.45822e-16
7.46037e-16
7.46258e-16
7.46372e-16
7.46915e-16
7.46974e-16
7.47078e-16
7.47335e-16
7.47453e-16
7.47646e-16
7.48013e-16
7.48114e-16
7.48106e-16
7.48718e-16
7.48794e-16
7.4884e-16
7.4904e-16
7.49057e-16
7.49127e-16
7.49193e-16
7.49354e-16
7.49404e-16
7.49471e-16
7.49654e-16
7.4948e-16
7.49422e-16
7.49292e-16
7.49546e-16
7.49473e-16
7.49458e-16
7.49574e-16
7.49571e-16
7.49617e-16
7.49638e-16
7.49943e-16
7.49799e-16
7.50288e-16
7.50662e-16
7.50818e-16
7.51186e-16
7.51254e-16
7.51654e-16
7.51896e-16
7.52248e-16
7.52617e-16
7.52748e-16
7.52885e-16
7.53116e-16
7.53004e-16
7.53085e-16
7.53226e-16
7.53002e-16
7.07336e-16
7.05955e-16
7.05205e-16
7.05423e-16
7.06318e-16
7.07723e-16
7.09483e-16
7.11328e-16
7.13146e-16
7.14758e-16
7.1629e-16
7.1768e-16
7.18918e-16
7.19987e-16
7.21133e-16
7.22003e-16
7.23059e-16
7.24057e-16
7.24869e-16
7.25518e-16
7.26229e-16
7.27047e-16
7.27754e-16
7.28085e-16
7.28907e-16
7.29441e-16
7.29902e-16
7.30542e-16
7.31201e-16
7.31758e-16
7.32191e-16
7.32703e-16
7.33203e-16
7.33522e-16
7.34068e-16
7.34635e-16
7.34927e-16
7.35061e-16
7.35693e-16
7.36085e-16
7.36594e-16
7.37134e-16
7.37513e-16
7.37699e-16
7.38323e-16
7.38622e-16
7.39209e-16
7.39281e-16
7.39623e-16
7.4009e-16
7.40429e-16
7.40494e-16
7.40948e-16
7.41567e-16
7.41556e-16
7.42022e-16
7.42119e-16
7.42388e-16
7.42685e-16
7.42896e-16
7.4303e-16
7.43537e-16
7.44005e-16
7.43991e-16
7.44053e-16
7.4412e-16
7.44288e-16
7.44703e-16
7.44642e-16
7.44956e-16
7.45289e-16
7.45489e-16
7.45659e-16
7.45796e-16
7.45936e-16
7.46043e-16
7.46397e-16
7.46974e-16
7.47289e-16
7.47022e-16
7.47317e-16
7.47535e-16
7.47655e-16
7.47714e-16
7.47886e-16
7.4825e-16
7.48623e-16
7.48538e-16
7.4876e-16
7.4896e-16
7.49063e-16
7.49226e-16
7.49164e-16
7.4943e-16
7.49389e-16
7.4949e-16
7.49676e-16
7.49656e-16
7.49052e-16
7.49308e-16
7.49514e-16
7.49316e-16
7.49391e-16
7.49478e-16
7.49635e-16
7.49564e-16
7.49464e-16
7.49843e-16
7.49566e-16
7.50241e-16
7.50471e-16
7.50797e-16
7.51338e-16
7.51261e-16
7.51621e-16
7.51706e-16
7.524e-16
7.52865e-16
7.52708e-16
7.52926e-16
7.53333e-16
7.53005e-16
7.53181e-16
7.53124e-16
7.5304e-16
7.10908e-16
7.09592e-16
7.0869e-16
7.08411e-16
7.08664e-16
7.094e-16
7.10558e-16
7.11944e-16
7.1339e-16
7.14917e-16
7.16277e-16
7.17628e-16
7.18779e-16
7.19855e-16
7.20963e-16
7.22007e-16
7.22858e-16
7.23837e-16
7.24702e-16
7.25426e-16
7.26094e-16
7.26876e-16
7.27546e-16
7.28048e-16
7.28832e-16
7.29329e-16
7.29875e-16
7.30462e-16
7.3111e-16
7.31481e-16
7.32015e-16
7.32598e-16
7.33128e-16
7.33496e-16
7.33951e-16
7.34467e-16
7.34758e-16
7.35288e-16
7.35563e-16
7.36125e-16
7.3654e-16
7.3694e-16
7.37284e-16
7.37792e-16
7.38309e-16
7.38461e-16
7.39025e-16
7.39346e-16
7.39688e-16
7.40084e-16
7.40273e-16
7.40689e-16
7.41113e-16
7.41373e-16
7.41471e-16
7.41805e-16
7.4201e-16
7.42301e-16
7.42519e-16
7.42723e-16
7.42993e-16
7.43364e-16
7.43656e-16
7.43899e-16
7.44194e-16
7.44085e-16
7.44364e-16
7.44753e-16
7.44991e-16
7.45051e-16
7.45313e-16
7.45494e-16
7.45654e-16
7.45369e-16
7.45563e-16
7.46127e-16
7.46516e-16
7.46775e-16
7.47224e-16
7.46559e-16
7.47264e-16
7.47805e-16
7.47819e-16
7.47742e-16
7.48088e-16
7.48295e-16
7.48214e-16
7.48587e-16
7.49034e-16
7.48908e-16
7.48987e-16
7.4915e-16
7.49345e-16
7.49417e-16
7.49603e-16
7.49762e-16
7.49901e-16
7.49463e-16
7.49231e-16
7.49571e-16
7.49565e-16
7.49033e-16
7.49143e-16
7.49337e-16
7.49156e-16
7.49395e-16
7.49474e-16
7.49786e-16
7.50061e-16
7.50224e-16
7.50117e-16
7.50744e-16
7.51424e-16
7.51563e-16
7.51578e-16
7.51683e-16
7.52415e-16
7.52487e-16
7.52739e-16
7.52907e-16
7.53069e-16
7.53419e-16
7.53557e-16
7.54397e-16
7.53666e-16
7.13328e-16
7.12273e-16
7.11453e-16
7.10991e-16
7.10878e-16
7.1116e-16
7.11912e-16
7.12911e-16
7.14007e-16
7.15322e-16
7.16486e-16
7.17661e-16
7.18777e-16
7.1981e-16
7.20964e-16
7.21995e-16
7.22801e-16
7.23582e-16
7.24423e-16
7.25093e-16
7.25842e-16
7.26615e-16
7.27682e-16
7.28041e-16
7.28596e-16
7.29213e-16
7.29755e-16
7.30373e-16
7.31066e-16
7.31298e-16
7.31717e-16
7.32523e-16
7.33341e-16
7.34041e-16
7.34103e-16
7.34339e-16
7.34704e-16
7.35115e-16
7.3561e-16
7.36174e-16
7.36486e-16
7.36853e-16
7.37405e-16
7.37797e-16
7.3795e-16
7.38284e-16
7.38677e-16
7.39216e-16
7.39631e-16
7.40216e-16
7.40227e-16
7.40723e-16
7.41505e-16
7.40779e-16
7.41315e-16
7.41632e-16
7.42195e-16
7.426e-16
7.42514e-16
7.42568e-16
7.42717e-16
7.43208e-16
7.43542e-16
7.44025e-16
7.44249e-16
7.44255e-16
7.4465e-16
7.44893e-16
7.4541e-16
7.44974e-16
7.45385e-16
7.45516e-16
7.45639e-16
7.45968e-16
7.45644e-16
7.45608e-16
7.46639e-16
7.46844e-16
7.46838e-16
7.46051e-16
7.46682e-16
7.4778e-16
7.47759e-16
7.48107e-16
7.48456e-16
7.49346e-16
7.48188e-16
7.48474e-16
7.49806e-16
7.48907e-16
7.48863e-16
7.48983e-16
7.48581e-16
7.49626e-16
7.49326e-16
7.49612e-16
7.49584e-16
7.49425e-16
7.49222e-16
7.49243e-16
7.49315e-16
7.49104e-16
7.49271e-16
7.49182e-16
7.49068e-16
7.4962e-16
7.49289e-16
7.4973e-16
7.49716e-16
7.50171e-16
7.49941e-16
7.50777e-16
7.51251e-16
7.51489e-16
7.51514e-16
7.5204e-16
7.51846e-16
7.52212e-16
7.53026e-16
7.52883e-16
7.52818e-16
7.53636e-16
7.53465e-16
7.54774e-16
7.53507e-16
7.15209e-16
7.14417e-16
7.13715e-16
7.1325e-16
7.12939e-16
7.12879e-16
7.1338e-16
7.14042e-16
7.14811e-16
7.15904e-16
7.16943e-16
7.1798e-16
7.19017e-16
7.20235e-16
7.20864e-16
7.2184e-16
7.23038e-16
7.2351e-16
7.24341e-16
7.24978e-16
7.25337e-16
7.25986e-16
7.2715e-16
7.28124e-16
7.2847e-16
7.2915e-16
7.29487e-16
7.30273e-16
7.3121e-16
7.3145e-16
7.32071e-16
7.32563e-16
7.33294e-16
7.33676e-16
7.34265e-16
7.34709e-16
7.35085e-16
7.35214e-16
7.35609e-16
7.35935e-16
7.3674e-16
7.36857e-16
7.37307e-16
7.37388e-16
7.37403e-16
7.37922e-16
7.3772e-16
7.38701e-16
7.3923e-16
7.40639e-16
7.40073e-16
7.40363e-16
7.41857e-16
7.40578e-16
7.41165e-16
7.42333e-16
7.41764e-16
7.42424e-16
7.42315e-16
7.42823e-16
7.42605e-16
7.43122e-16
7.43627e-16
7.43839e-16
7.4424e-16
7.44138e-16
7.44964e-16
7.44901e-16
7.45263e-16
7.45266e-16
7.45706e-16
7.45549e-16
7.45431e-16
7.45445e-16
7.46298e-16
7.4619e-16
7.46581e-16
7.47378e-16
7.46597e-16
7.46259e-16
7.47533e-16
7.47674e-16
7.48038e-16
7.47941e-16
7.48208e-16
7.49734e-16
7.48174e-16
7.48631e-16
7.50026e-16
7.49274e-16
7.49358e-16
7.49316e-16
7.48678e-16
7.49809e-16
7.48777e-16
7.48958e-16
7.49882e-16
7.4895e-16
7.49278e-16
7.50031e-16
7.49283e-16
7.48756e-16
7.49364e-16
7.48866e-16
7.48451e-16
7.49339e-16
7.4964e-16
7.49821e-16
7.49838e-16
7.50063e-16
7.50324e-16
7.51073e-16
7.50739e-16
7.51608e-16
7.51289e-16
7.52672e-16
7.51159e-16
7.53038e-16
7.53152e-16
7.5296e-16
7.5291e-16
7.53945e-16
7.53293e-16
7.53865e-16
7.53386e-16
7.16785e-16
7.16175e-16
7.1562e-16
7.15199e-16
7.14888e-16
7.14653e-16
7.14782e-16
7.15223e-16
7.15768e-16
7.16734e-16
7.17694e-16
7.18705e-16
7.19421e-16
7.20363e-16
7.20938e-16
7.21626e-16
7.22854e-16
7.23766e-16
7.2445e-16
7.25117e-16
7.25631e-16
7.26381e-16
7.27247e-16
7.2827e-16
7.28634e-16
7.29381e-16
7.29996e-16
7.30175e-16
7.31067e-16
7.31456e-16
7.31993e-16
7.32563e-16
7.33381e-16
7.3424e-16
7.3414e-16
7.34493e-16
7.35021e-16
7.35117e-16
7.35933e-16
7.36379e-16
7.37254e-16
7.36882e-16
7.37594e-16
7.37493e-16
7.37204e-16
7.38126e-16
7.38887e-16
7.38817e-16
7.39191e-16
7.39929e-16
7.40685e-16
7.40768e-16
7.41725e-16
7.4158e-16
7.41958e-16
7.42898e-16
7.42512e-16
7.42926e-16
7.42617e-16
7.4308e-16
7.42402e-16
7.43598e-16
7.44114e-16
7.43857e-16
7.4484e-16
7.44237e-16
7.44074e-16
7.44674e-16
7.45716e-16
7.45574e-16
7.45535e-16
7.45467e-16
7.45942e-16
7.45766e-16
7.45904e-16
7.45798e-16
7.47009e-16
7.47168e-16
7.46219e-16
7.46794e-16
7.47503e-16
7.46974e-16
7.48109e-16
7.47975e-16
7.49039e-16
7.49719e-16
7.48388e-16
7.48946e-16
7.49197e-16
7.49171e-16
7.48923e-16
7.49764e-16
7.49108e-16
7.49844e-16
7.48535e-16
7.49307e-16
7.49938e-16
7.49087e-16
7.4951e-16
7.4984e-16
7.49328e-16
7.4874e-16
7.49718e-16
7.49118e-16
7.49348e-16
7.50159e-16
7.50392e-16
7.50131e-16
7.49909e-16
7.49782e-16
7.50288e-16
7.51017e-16
7.50959e-16
7.51532e-16
7.51362e-16
7.52132e-16
7.52227e-16
7.53522e-16
7.52827e-16
7.5315e-16
7.51846e-16
7.54244e-16
7.53142e-16
7.52582e-16
7.52437e-16
7.18162e-16
7.17701e-16
7.17241e-16
7.16819e-16
7.16469e-16
7.16187e-16
7.16211e-16
7.16484e-16
7.16961e-16
7.17387e-16
7.18375e-16
7.19273e-16
7.19974e-16
7.206e-16
7.21406e-16
7.22147e-16
7.22984e-16
7.23805e-16
7.24688e-16
7.2534e-16
7.26079e-16
7.26473e-16
7.27307e-16
7.27677e-16
7.2781e-16
7.29256e-16
7.3013e-16
7.30449e-16
7.30827e-16
7.31346e-16
7.31882e-16
7.32845e-16
7.33285e-16
7.3358e-16
7.33955e-16
7.34263e-16
7.34965e-16
7.35069e-16
7.35956e-16
7.36078e-16
7.36482e-16
7.36561e-16
7.37888e-16
7.37296e-16
7.38013e-16
7.38474e-16
7.38604e-16
7.38778e-16
7.39016e-16
7.39979e-16
7.40306e-16
7.40781e-16
7.41066e-16
7.41267e-16
7.41665e-16
7.42092e-16
7.42181e-16
7.42367e-16
7.42485e-16
7.42791e-16
7.42456e-16
7.434e-16
7.4386e-16
7.43539e-16
7.43951e-16
7.44343e-16
7.44342e-16
7.45011e-16
7.45332e-16
7.45405e-16
7.45366e-16
7.45092e-16
7.45817e-16
7.45966e-16
7.45489e-16
7.4616e-16
7.47019e-16
7.4652e-16
7.46794e-16
7.46901e-16
7.46987e-16
7.47305e-16
7.47533e-16
7.47892e-16
7.4852e-16
7.49201e-16
7.49427e-16
7.49431e-16
7.48408e-16
7.48961e-16
7.49175e-16
7.49913e-16
7.49026e-16
7.49593e-16
7.49696e-16
7.49934e-16
7.49821e-16
7.48743e-16
7.4907e-16
7.49589e-16
7.49025e-16
7.49189e-16
7.49609e-16
7.48913e-16
7.4942e-16
7.49525e-16
7.49665e-16
7.49768e-16
7.49777e-16
7.49913e-16
7.50012e-16
7.51035e-16
7.51333e-16
7.51371e-16
7.51141e-16
7.51915e-16
7.52231e-16
7.52773e-16
7.5247e-16
7.52795e-16
7.52641e-16
7.53501e-16
7.53557e-16
7.53297e-16
7.52823e-16
7.19408e-16
7.19043e-16
7.18683e-16
7.18307e-16
7.17886e-16
7.17616e-16
7.17563e-16
7.17699e-16
7.17938e-16
7.18086e-16
7.19115e-16
7.19836e-16
7.20367e-16
7.20708e-16
7.21746e-16
7.22472e-16
7.23254e-16
7.23724e-16
7.24826e-16
7.25694e-16
7.26338e-16
7.2691e-16
7.27623e-16
7.27061e-16
7.28289e-16
7.29076e-16
7.2985e-16
7.30335e-16
7.3063e-16
7.31217e-16
7.31407e-16
7.32713e-16
7.32596e-16
7.32959e-16
7.33973e-16
7.3493e-16
7.35886e-16
7.3475e-16
7.35543e-16
7.35866e-16
7.36204e-16
7.3708e-16
7.37822e-16
7.37229e-16
7.38435e-16
7.38445e-16
7.38261e-16
7.3885e-16
7.38759e-16
7.40006e-16
7.40093e-16
7.41072e-16
7.4218e-16
7.41848e-16
7.41623e-16
7.41856e-16
7.419e-16
7.418e-16
7.42084e-16
7.42581e-16
7.42991e-16
7.43471e-16
7.44172e-16
7.43838e-16
7.44061e-16
7.44417e-16
7.45326e-16
7.45704e-16
7.45302e-16
7.45284e-16
7.45059e-16
7.4565e-16
7.4574e-16
7.45777e-16
7.45924e-16
7.46234e-16
7.4651e-16
7.4568e-16
7.46545e-16
7.47036e-16
7.46324e-16
7.48181e-16
7.47084e-16
7.47915e-16
7.48843e-16
7.49315e-16
7.48877e-16
7.48912e-16
7.48162e-16
7.49526e-16
7.48798e-16
7.49484e-16
7.49607e-16
7.48864e-16
7.49874e-16
7.49512e-16
7.49061e-16
7.48621e-16
7.49335e-16
7.49732e-16
7.49779e-16
7.49182e-16
7.48765e-16
7.4918e-16
7.49847e-16
7.50511e-16
7.49451e-16
7.49777e-16
7.49398e-16
7.49702e-16
7.50132e-16
7.50921e-16
7.51139e-16
7.51459e-16
7.51454e-16
7.51828e-16
7.52161e-16
7.52744e-16
7.52055e-16
7.52401e-16
7.53191e-16
7.53282e-16
7.531e-16
7.53929e-16
7.53572e-16
7.20541e-16
7.20242e-16
7.1993e-16
7.19606e-16
7.19237e-16
7.18958e-16
7.1882e-16
7.18817e-16
7.18942e-16
7.1929e-16
7.19838e-16
7.20354e-16
7.21084e-16
7.21379e-16
7.22095e-16
7.22898e-16
7.23686e-16
7.23535e-16
7.24537e-16
7.25626e-16
7.263e-16
7.26667e-16
7.27345e-16
7.27585e-16
7.28613e-16
7.29097e-16
7.29804e-16
7.30381e-16
7.30769e-16
7.31413e-16
7.31917e-16
7.32572e-16
7.32824e-16
7.32903e-16
7.34033e-16
7.34133e-16
7.35526e-16
7.35138e-16
7.35634e-16
7.35802e-16
7.35859e-16
7.3664e-16
7.37308e-16
7.37282e-16
7.38154e-16
7.38202e-16
7.39077e-16
7.38207e-16
7.39092e-16
7.40322e-16
7.40257e-16
7.41302e-16
7.40914e-16
7.4126e-16
7.41761e-16
7.42202e-16
7.41685e-16
7.42346e-16
7.42611e-16
7.43168e-16
7.43075e-16
7.43263e-16
7.43038e-16
7.43545e-16
7.4425e-16
7.44039e-16
7.45245e-16
7.452e-16
7.45057e-16
7.44984e-16
7.45139e-16
7.46255e-16
7.45419e-16
7.46575e-16
7.46054e-16
7.45819e-16
7.46777e-16
7.46007e-16
7.47468e-16
7.46968e-16
7.46152e-16
7.48296e-16
7.47413e-16
7.48151e-16
7.48903e-16
7.50071e-16
7.48551e-16
7.48464e-16
7.49308e-16
7.49427e-16
7.48469e-16
7.49257e-16
7.50596e-16
7.48943e-16
7.49938e-16
7.49307e-16
7.49554e-16
7.48881e-16
7.48669e-16
7.4938e-16
7.49998e-16
7.4889e-16
7.48169e-16
7.4916e-16
7.49517e-16
7.50323e-16
7.49327e-16
7.50019e-16
7.49343e-16
7.49626e-16
7.49955e-16
7.506e-16
7.51478e-16
7.51279e-16
7.511e-16
7.51753e-16
7.52187e-16
7.52404e-16
7.52194e-16
7.53137e-16
7.5272e-16
7.53509e-16
7.5353e-16
7.54928e-16
7.54136e-16
7.21579e-16
7.21332e-16
7.21065e-16
7.20702e-16
7.20429e-16
7.20278e-16
7.20009e-16
7.19778e-16
7.19635e-16
7.20233e-16
7.20833e-16
7.21472e-16
7.21864e-16
7.21973e-16
7.22125e-16
7.22906e-16
7.23874e-16
7.24291e-16
7.24808e-16
7.25754e-16
7.26987e-16
7.27212e-16
7.27239e-16
7.2786e-16
7.28598e-16
7.28276e-16
7.29659e-16
7.30388e-16
7.30701e-16
7.31957e-16
7.32548e-16
7.32542e-16
7.33207e-16
7.33852e-16
7.34928e-16
7.34473e-16
7.35495e-16
7.35267e-16
7.34967e-16
7.35814e-16
7.36084e-16
7.3605e-16
7.3726e-16
7.37998e-16
7.38833e-16
7.39224e-16
7.39141e-16
7.3888e-16
7.39774e-16
7.41188e-16
7.40424e-16
7.39472e-16
7.4084e-16
7.40528e-16
7.41956e-16
7.43021e-16
7.41913e-16
7.43191e-16
7.42666e-16
7.43225e-16
7.4234e-16
7.42796e-16
7.42017e-16
7.43588e-16
7.44346e-16
7.44373e-16
7.44042e-16
7.44397e-16
7.44444e-16
7.43944e-16
7.45331e-16
7.45878e-16
7.45193e-16
7.4573e-16
7.4577e-16
7.45903e-16
7.46564e-16
7.47192e-16
7.47266e-16
7.46786e-16
7.46435e-16
7.48564e-16
7.48337e-16
7.48926e-16
7.49829e-16
7.49789e-16
7.48067e-16
7.48834e-16
7.49346e-16
7.49781e-16
7.49067e-16
7.4902e-16
7.49272e-16
7.49101e-16
7.49007e-16
7.49416e-16
7.50459e-16
7.48516e-16
7.49192e-16
7.495e-16
7.49566e-16
7.49777e-16
7.47532e-16
7.4893e-16
7.49667e-16
7.4991e-16
7.49019e-16
7.50111e-16
7.49773e-16
7.48679e-16
7.50692e-16
7.50998e-16
7.50954e-16
7.49868e-16
7.50868e-16
7.5155e-16
7.52476e-16
7.52188e-16
7.5178e-16
7.54355e-16
7.51635e-16
7.53812e-16
7.53747e-16
7.54117e-16
7.53566e-16
7.22567e-16
7.22359e-16
7.2215e-16
7.21811e-16
7.21437e-16
7.21382e-16
7.21197e-16
7.21081e-16
7.21e-16
7.2127e-16
7.21535e-16
7.21949e-16
7.22528e-16
7.23155e-16
7.23165e-16
7.23176e-16
7.24111e-16
7.24567e-16
7.25578e-16
7.25866e-16
7.26883e-16
7.27292e-16
7.27737e-16
7.28281e-16
7.28397e-16
7.28659e-16
7.29402e-16
7.3054e-16
7.31622e-16
7.32632e-16
7.32129e-16
7.31939e-16
7.33858e-16
7.34508e-16
7.34919e-16
7.35608e-16
7.35368e-16
7.35236e-16
7.35952e-16
7.36056e-16
7.36131e-16
7.37431e-16
7.37563e-16
7.37472e-16
7.39065e-16
7.39219e-16
7.38934e-16
7.3799e-16
7.39553e-16
7.4071e-16
7.40534e-16
7.40167e-16
7.417e-16
7.41416e-16
7.41105e-16
7.40876e-16
7.42428e-16
7.42691e-16
7.41866e-16
7.42778e-16
7.42498e-16
7.4303e-16
7.42582e-16
7.43431e-16
7.44531e-16
7.446e-16
7.44642e-16
7.44989e-16
7.45388e-16
7.45029e-16
7.45044e-16
7.452e-16
7.45553e-16
7.46923e-16
7.47293e-16
7.46943e-16
7.46057e-16
7.47555e-16
7.46749e-16
7.45364e-16
7.47007e-16
7.47727e-16
7.48121e-16
7.49353e-16
7.48473e-16
7.49997e-16
7.47794e-16
7.48797e-16
7.4832e-16
7.49323e-16
7.49414e-16
7.50468e-16
7.49365e-16
7.48721e-16
7.49342e-16
7.49535e-16
7.49669e-16
7.48542e-16
7.49909e-16
7.50207e-16
7.49778e-16
7.49773e-16
7.48086e-16
7.49172e-16
7.50257e-16
7.49195e-16
7.49583e-16
7.49576e-16
7.50276e-16
7.49044e-16
7.51609e-16
7.52413e-16
7.4965e-16
7.52432e-16
7.51177e-16
7.51691e-16
7.52323e-16
7.52636e-16
7.52252e-16
7.52759e-16
7.52246e-16
7.53046e-16
7.52226e-16
7.54275e-16
7.53306e-16
7.23474e-16
7.23325e-16
7.23109e-16
7.22787e-16
7.22604e-16
7.22529e-16
7.22087e-16
7.22103e-16
7.22034e-16
7.22452e-16
7.22387e-16
7.22765e-16
7.2302e-16
7.23513e-16
7.24353e-16
7.24278e-16
7.24636e-16
7.25015e-16
7.25954e-16
7.26025e-16
7.26417e-16
7.27343e-16
7.28174e-16
7.28393e-16
7.27799e-16
7.28881e-16
7.29984e-16
7.30757e-16
7.31205e-16
7.31979e-16
7.31891e-16
7.31658e-16
7.32726e-16
7.33722e-16
7.33745e-16
7.34465e-16
7.33533e-16
7.33822e-16
7.34936e-16
7.35881e-16
7.36354e-16
7.37315e-16
7.38054e-16
7.37213e-16
7.37729e-16
7.3822e-16
7.38759e-16
7.38912e-16
7.39397e-16
7.41761e-16
7.412e-16
7.41082e-16
7.41013e-16
7.40949e-16
7.41723e-16
7.42347e-16
7.42608e-16
7.43056e-16
7.42982e-16
7.43037e-16
7.42956e-16
7.42764e-16
7.42397e-16
7.43841e-16
7.45332e-16
7.44845e-16
7.44751e-16
7.45237e-16
7.44047e-16
7.44945e-16
7.45644e-16
7.46048e-16
7.46724e-16
7.46788e-16
7.47672e-16
7.47372e-16
7.45932e-16
7.46594e-16
7.45877e-16
7.46045e-16
7.47466e-16
7.47307e-16
7.48099e-16
7.49917e-16
7.48901e-16
7.4935e-16
7.48044e-16
7.48863e-16
7.47445e-16
7.49244e-16
7.49361e-16
7.49613e-16
7.49271e-16
7.48877e-16
7.49883e-16
7.50224e-16
7.51192e-16
7.48852e-16
7.49799e-16
7.50466e-16
7.50602e-16
7.50933e-16
7.4938e-16
7.50477e-16
7.4825e-16
7.49612e-16
7.48868e-16
7.48746e-16
7.50048e-16
7.49284e-16
7.53207e-16
7.51189e-16
7.51023e-16
7.5307e-16
7.51384e-16
7.51803e-16
7.52697e-16
7.54014e-16
7.52673e-16
7.5272e-16
7.53547e-16
7.53188e-16
7.53569e-16
7.54226e-16
7.5313e-16
7.24374e-16
7.24231e-16
7.24069e-16
7.23926e-16
7.23596e-16
7.23314e-16
7.23132e-16
7.23108e-16
7.22656e-16
7.23137e-16
7.23067e-16
7.23392e-16
7.23904e-16
7.24084e-16
7.24682e-16
7.24757e-16
7.25174e-16
7.26115e-16
7.26246e-16
7.27138e-16
7.28173e-16
7.27747e-16
7.28193e-16
7.28752e-16
7.28971e-16
7.29628e-16
7.30388e-16
7.31279e-16
7.30992e-16
7.31526e-16
7.3202e-16
7.32318e-16
7.32892e-16
7.34211e-16
7.34949e-16
7.34606e-16
7.34835e-16
7.33869e-16
7.35206e-16
7.35334e-16
7.36212e-16
7.37122e-16
7.37652e-16
7.37822e-16
7.38197e-16
7.38517e-16
7.38399e-16
7.38976e-16
7.397e-16
7.41118e-16
7.4069e-16
7.40708e-16
7.41809e-16
7.42464e-16
7.4228e-16
7.41647e-16
7.42681e-16
7.4177e-16
7.42465e-16
7.43398e-16
7.43112e-16
7.42981e-16
7.42624e-16
7.43865e-16
7.45496e-16
7.4488e-16
7.43406e-16
7.45723e-16
7.45108e-16
7.46092e-16
7.46081e-16
7.46807e-16
7.46539e-16
7.46213e-16
7.46992e-16
7.48786e-16
7.46746e-16
7.45296e-16
7.46844e-16
7.46842e-16
7.48422e-16
7.48303e-16
7.48227e-16
7.4875e-16
7.4745e-16
7.49187e-16
7.48895e-16
7.4966e-16
7.48382e-16
7.49918e-16
7.49843e-16
7.48688e-16
7.4862e-16
7.49319e-16
7.49883e-16
7.50385e-16
7.49973e-16
7.48947e-16
7.50073e-16
7.49857e-16
7.49523e-16
7.50534e-16
7.49984e-16
7.49935e-16
7.49456e-16
7.50037e-16
7.49662e-16
7.49123e-16
7.49559e-16
7.49579e-16
7.52551e-16
7.50959e-16
7.51925e-16
7.51604e-16
7.51122e-16
7.52005e-16
7.51538e-16
7.52405e-16
7.53118e-16
7.52663e-16
7.53045e-16
7.52649e-16
7.53568e-16
7.5547e-16
7.53003e-16
7.25217e-16
7.25074e-16
7.24942e-16
7.24834e-16
7.2447e-16
7.24097e-16
7.24055e-16
7.24036e-16
7.23773e-16
7.24049e-16
7.23977e-16
7.24066e-16
7.24768e-16
7.24573e-16
7.24667e-16
7.2514e-16
7.25221e-16
7.26136e-16
7.26564e-16
7.2766e-16
7.27766e-16
7.28111e-16
7.28109e-16
7.29182e-16
7.28983e-16
7.29783e-16
7.30429e-16
7.30989e-16
7.30845e-16
7.31905e-16
7.32599e-16
7.32503e-16
7.32966e-16
7.33656e-16
7.35838e-16
7.34801e-16
7.35126e-16
7.35172e-16
7.35425e-16
7.3468e-16
7.3657e-16
7.37466e-16
7.37751e-16
7.38055e-16
7.3848e-16
7.38663e-16
7.39459e-16
7.40148e-16
7.39291e-16
7.40784e-16
7.4031e-16
7.39806e-16
7.41386e-16
7.4152e-16
7.40985e-16
7.41643e-16
7.41843e-16
7.41558e-16
7.41768e-16
7.42853e-16
7.42754e-16
7.42514e-16
7.43496e-16
7.43252e-16
7.44599e-16
7.45431e-16
7.44153e-16
7.45224e-16
7.4453e-16
7.45565e-16
7.46131e-16
7.47029e-16
7.46752e-16
7.45385e-16
7.46099e-16
7.47661e-16
7.46949e-16
7.46981e-16
7.47623e-16
7.48323e-16
7.48924e-16
7.47299e-16
7.47742e-16
7.49073e-16
7.46457e-16
7.48651e-16
7.49628e-16
7.49531e-16
7.4713e-16
7.49474e-16
7.51154e-16
7.49067e-16
7.48522e-16
7.49542e-16
7.50217e-16
7.5032e-16
7.4954e-16
7.4758e-16
7.49457e-16
7.49547e-16
7.47846e-16
7.49629e-16
7.49314e-16
7.4898e-16
7.49189e-16
7.49204e-16
7.48972e-16
7.49154e-16
7.49213e-16
7.48821e-16
7.50341e-16
7.49781e-16
7.53297e-16
7.50146e-16
7.5061e-16
7.51648e-16
7.50601e-16
7.51264e-16
7.53203e-16
7.51861e-16
7.51077e-16
7.52847e-16
7.52785e-16
7.53149e-16
7.50198e-16
7.26006e-16
7.25857e-16
7.25728e-16
7.25535e-16
7.25439e-16
7.25222e-16
7.24957e-16
7.24816e-16
7.24698e-16
7.24595e-16
7.24733e-16
7.24924e-16
7.2536e-16
7.24979e-16
7.25428e-16
7.25957e-16
7.26429e-16
7.26672e-16
7.26501e-16
7.27325e-16
7.28189e-16
7.2965e-16
7.28684e-16
7.29163e-16
7.29499e-16
7.30103e-16
7.30841e-16
7.31613e-16
7.32207e-16
7.33492e-16
7.31647e-16
7.32203e-16
7.33408e-16
7.34313e-16
7.34989e-16
7.34706e-16
7.36223e-16
7.35827e-16
7.35642e-16
7.35149e-16
7.35273e-16
7.383e-16
7.38372e-16
7.38205e-16
7.38967e-16
7.38099e-16
7.39608e-16
7.39678e-16
7.38876e-16
7.39606e-16
7.39942e-16
7.40341e-16
7.40018e-16
7.41001e-16
7.42145e-16
7.41965e-16
7.42265e-16
7.43312e-16
7.42733e-16
7.43034e-16
7.438e-16
7.4258e-16
7.44307e-16
7.43791e-16
7.43964e-16
7.45585e-16
7.43968e-16
7.44906e-16
7.45003e-16
7.45275e-16
7.45998e-16
7.46374e-16
7.45594e-16
7.45712e-16
7.44704e-16
7.48088e-16
7.46783e-16
7.48075e-16
7.4769e-16
7.48848e-16
7.48427e-16
7.46646e-16
7.46441e-16
7.49278e-16
7.47944e-16
7.48677e-16
7.482e-16
7.48765e-16
7.47624e-16
7.48657e-16
7.49011e-16
7.50086e-16
7.48374e-16
7.49298e-16
7.48892e-16
7.49384e-16
7.50508e-16
7.48243e-16
7.48333e-16
7.49353e-16
7.48576e-16
7.50104e-16
7.49207e-16
7.48054e-16
7.48977e-16
7.48711e-16
7.48113e-16
7.49231e-16
7.48745e-16
7.48406e-16
7.49321e-16
7.49521e-16
7.5146e-16
7.51053e-16
7.49863e-16
7.52248e-16
7.53209e-16
7.49914e-16
7.52837e-16
7.51606e-16
7.52222e-16
7.52892e-16
7.51097e-16
7.51402e-16
7.54211e-16
7.2679e-16
7.2669e-16
7.26581e-16
7.26418e-16
7.26189e-16
7.25999e-16
7.25686e-16
7.2549e-16
7.25528e-16
7.25654e-16
7.25553e-16
7.25653e-16
7.25776e-16
7.25627e-16
7.25908e-16
7.26882e-16
7.26887e-16
7.26327e-16
7.26807e-16
7.27785e-16
7.29462e-16
7.28811e-16
7.28162e-16
7.29882e-16
7.30083e-16
7.30912e-16
7.32434e-16
7.31514e-16
7.31568e-16
7.32029e-16
7.3085e-16
7.31317e-16
7.32318e-16
7.33106e-16
7.32563e-16
7.34855e-16
7.36358e-16
7.3515e-16
7.35834e-16
7.3737e-16
7.37276e-16
7.37572e-16
7.37506e-16
7.38195e-16
7.38538e-16
7.38477e-16
7.41397e-16
7.39836e-16
7.38417e-16
7.38132e-16
7.41094e-16
7.41438e-16
7.41756e-16
7.40356e-16
7.42291e-16
7.41988e-16
7.42705e-16
7.43818e-16
7.43165e-16
7.42912e-16
7.42896e-16
7.44032e-16
7.43762e-16
7.43928e-16
7.44657e-16
7.45449e-16
7.43168e-16
7.4464e-16
7.45409e-16
7.44716e-16
7.4607e-16
7.47181e-16
7.45561e-16
7.45871e-16