/*--------------------------------*- C++ -*----------------------------------*\
| =========                 |                                                 |
| \\      /  F ield         | OpenFOAM: The Open Source CFD Toolbox           |
|  \\    /   O peration     | Version:  4.x                                   |
|   \\  /    A nd           | Web:      www.OpenFOAM.org                      |
|    \\/     M anipulation  |                                                 |
\*---------------------------------------------------------------------------*/
FoamFile
{
    version     2.0;
    format      ascii;
    class       volTensorField;
    location    "0";
    object      Q_D;
}
// * * * * * * * * * * * * * * * * * * * * * * * * * * * * * * * * * * * * * //

dimensions      [0 0 0 0 0 0 0];

internalField   nonuniform List<tensor> 
15625
(
(0.707107 0.707107 8.00748e-17 0.5 -0.5 -0.707107 0.5 -0.5 0.707107)
(0.707107 0.707107 -4.99476e-14 0.213036 -0.213036 -0.953536 0.674252 -0.674252 0.301278)
(0.707107 0.707107 -3.45126e-14 0.128749 -0.128749 -0.983284 0.695287 -0.695287 0.182079)
(0.707107 0.707107 -4.05178e-14 0.0911293 -0.0911293 -0.991661 0.70121 -0.70121 0.128876)
(0.707107 0.707107 -2.8672e-14 0.0697748 -0.0697748 -0.99512 0.703656 -0.703656 0.0986765)
(0.707107 0.707107 -1.96166e-14 0.0558229 -0.0558229 -0.996879 0.7049 -0.7049 0.0789455)
(0.707107 0.707107 -1.39537e-14 0.0458964 -0.0458964 -0.997891 0.705616 -0.705616 0.0649073)
(0.707107 0.707107 -1.03669e-14 0.03846 -0.03846 -0.99852 0.70606 -0.70606 0.0543907)
(0.707107 0.707107 -8.00817e-15 0.0327063 -0.0327063 -0.99893 0.70635 -0.70635 0.0462537)
(0.707107 0.707107 -6.39229e-15 0.028155 -0.028155 -0.999207 0.706546 -0.706546 0.0398172)
(0.707107 0.707107 -5.23674e-15 0.0244995 -0.0244995 -0.9994 0.706682 -0.706682 0.0346476)
(0.707107 0.707107 -4.38077e-15 0.0215248 -0.0215248 -0.999537 0.706779 -0.706779 0.0304406)
(0.707107 0.707107 -3.73285e-15 0.0190753 -0.0190753 -0.999636 0.706849 -0.706849 0.0269766)
(0.707107 0.707107 -3.22949e-15 0.0170379 -0.0170379 -0.99971 0.706901 -0.706901 0.0240953)
(0.707107 0.707107 -2.83144e-15 0.0153267 -0.0153267 -0.999765 0.706941 -0.706941 0.0216752)
(0.707107 0.707107 -2.50817e-15 0.0138746 -0.0138746 -0.999807 0.706971 -0.706971 0.0196217)
(0.707107 0.707107 -2.24348e-15 0.0126318 -0.0126318 -0.99984 0.706994 -0.706994 0.0178641)
(0.707107 0.707107 -2.02418e-15 0.0115592 -0.0115592 -0.999866 0.707012 -0.707012 0.0163472)
(0.707107 0.707107 -1.83031e-15 0.0106268 -0.0106268 -0.999887 0.707027 -0.707027 0.0150285)
(0.707107 0.707107 -1.66501e-15 0.00981127 -0.00981127 -0.999904 0.707039 -0.707039 0.0138752)
(0.707107 0.707107 -1.53244e-15 0.00909189 -0.00909189 -0.999917 0.707048 -0.707048 0.0128579)
(0.707107 0.707107 -1.42026e-15 0.00845383 -0.00845383 -0.999929 0.707056 -0.707056 0.0119555)
(0.707107 0.707107 -1.31973e-15 0.00788555 -0.00788555 -0.999938 0.707063 -0.707063 0.0111518)
(0.707107 0.707107 -1.23514e-15 0.00737563 -0.00737563 -0.999946 0.707068 -0.707068 0.0104307)
(0.707107 0.707107 -1.15894e-15 0.00691587 -0.00691587 -0.999952 0.707073 -0.707073 0.00978051)
(0.707107 0.707107 -1.08461e-15 0.00650069 -0.00650069 -0.999958 0.707077 -0.707077 0.00919336)
(0.707107 0.707107 -1.02078e-15 0.0061238 -0.0061238 -0.999962 0.70708 -0.70708 0.00866036)
(0.707107 0.707107 -9.64591e-16 0.00578042 -0.00578042 -0.999967 0.707083 -0.707083 0.00817475)
(0.707107 0.707107 -9.12129e-16 0.00546631 -0.00546631 -0.99997 0.707086 -0.707086 0.00773053)
(0.707107 0.707107 -8.6601e-16 0.00517774 -0.00517774 -0.999973 0.707088 -0.707088 0.00732243)
(0.707107 0.707107 -8.22372e-16 0.00491205 -0.00491205 -0.999976 0.70709 -0.70709 0.00694669)
(0.707107 0.707107 -7.76558e-16 0.00466689 -0.00466689 -0.999978 0.707091 -0.707091 0.00659998)
(0.707107 0.707107 -7.30568e-16 0.00444012 -0.00444012 -0.99998 0.707093 -0.707093 0.00627928)
(0.707107 0.707107 -6.91352e-16 0.00422985 -0.00422985 -0.999982 0.707094 -0.707094 0.00598191)
(0.707107 0.707107 -6.55251e-16 0.00403433 -0.00403433 -0.999984 0.707095 -0.707095 0.00570541)
(0.707107 0.707107 -6.22127e-16 0.00385201 -0.00385201 -0.999985 0.707096 -0.707096 0.00544757)
(0.707107 0.707107 -5.96551e-16 0.00368205 -0.00368205 -0.999986 0.707097 -0.707097 0.0052072)
(0.707107 0.707107 -5.73263e-16 0.00352251 -0.00352251 -0.999988 0.707098 -0.707098 0.00498157)
(0.707107 0.707107 -5.51564e-16 0.00337336 -0.00337336 -0.999989 0.707099 -0.707099 0.00477065)
(0.707107 0.707107 -5.33223e-16 0.00323402 -0.00323402 -0.99999 0.707099 -0.707099 0.0045736)
(0.707107 0.707107 -5.17558e-16 0.00310223 -0.00310223 -0.99999 0.7071 -0.7071 0.00438722)
(0.707107 0.707107 -4.94298e-16 0.00297814 -0.00297814 -0.999991 0.707101 -0.707101 0.00421173)
(0.707107 0.707107 -4.66739e-16 0.00286135 -0.00286135 -0.999992 0.707101 -0.707101 0.00404657)
(0.707107 0.707107 -4.5117e-16 0.00275094 -0.00275094 -0.999992 0.707101 -0.707101 0.00389042)
(0.707107 0.707107 -4.35914e-16 0.00264659 -0.00264659 -0.999993 0.707102 -0.707102 0.00374285)
(0.707107 0.707107 -4.19673e-16 0.00254748 -0.00254748 -0.999994 0.707102 -0.707102 0.00360268)
(0.707107 0.707107 -4.08921e-16 0.00245334 -0.00245334 -0.999994 0.707103 -0.707103 0.00346955)
(0.707107 0.707107 -3.97421e-16 0.00236448 -0.00236448 -0.999994 0.707103 -0.707103 0.00334389)
(0.707107 0.707107 -3.88695e-16 0.00228015 -0.00228015 -0.999995 0.707103 -0.707103 0.00322462)
(0.707107 0.707107 -3.74226e-16 0.00219963 -0.00219963 -0.999995 0.707103 -0.707103 0.00311075)
(0.707107 0.707107 -3.54553e-16 0.00212276 -0.00212276 -0.999995 0.707104 -0.707104 0.00300204)
(0.707107 0.707107 -3.40252e-16 0.00204938 -0.00204938 -0.999996 0.707104 -0.707104 0.00289827)
(0.707107 0.707107 -3.32251e-16 0.00197985 -0.00197985 -0.999996 0.707104 -0.707104 0.00279993)
(0.707107 0.707107 -3.18913e-16 0.00191303 -0.00191303 -0.999996 0.707104 -0.707104 0.00270543)
(0.707107 0.707107 -3.03481e-16 0.00184929 -0.00184929 -0.999997 0.707104 -0.707104 0.0026153)
(0.707107 0.707107 -2.89766e-16 0.00178853 -0.00178853 -0.999997 0.707105 -0.707105 0.00252936)
(0.707107 0.707107 -2.74409e-16 0.00172967 -0.00172967 -0.999997 0.707105 -0.707105 0.00244613)
(0.707107 0.707107 -2.63287e-16 0.00167359 -0.00167359 -0.999997 0.707105 -0.707105 0.00236682)
(0.707107 0.707107 -2.53169e-16 0.00161972 -0.00161972 -0.999997 0.707105 -0.707105 0.00229063)
(0.707107 0.707107 -2.41565e-16 0.00156797 -0.00156797 -0.999998 0.707105 -0.707105 0.00221745)
(0.707107 0.707107 -2.38629e-16 0.00151873 -0.00151873 -0.999998 0.707105 -0.707105 0.00214781)
(0.707107 0.707107 -2.36012e-16 0.00147102 -0.00147102 -0.999998 0.707105 -0.707105 0.00208033)
(0.707107 0.707107 -2.22865e-16 0.00142433 -0.00142433 -0.999998 0.707105 -0.707105 0.00201431)
(0.707107 0.707107 -2.12084e-16 0.00138039 -0.00138039 -0.999998 0.707105 -0.707105 0.00195216)
(0.707107 0.707107 -2.10656e-16 0.0013378 -0.0013378 -0.999998 0.707106 -0.707106 0.00189193)
(0.707107 0.707107 -2.13253e-16 0.00129609 -0.00129609 -0.999998 0.707106 -0.707106 0.00183295)
(0.707107 0.707107 -2.09465e-16 0.00125651 -0.00125651 -0.999998 0.707106 -0.707106 0.00177697)
(0.707107 0.707107 -1.99005e-16 0.00121815 -0.00121815 -0.999999 0.707106 -0.707106 0.00172272)
(0.707107 0.707107 -1.8768e-16 0.00118096 -0.00118096 -0.999999 0.707106 -0.707106 0.00167013)
(0.707107 0.707107 -1.84083e-16 0.00114533 -0.00114533 -0.999999 0.707106 -0.707106 0.00161974)
(0.707107 0.707107 -1.82256e-16 0.0011104 -0.0011104 -0.999999 0.707106 -0.707106 0.00157034)
(0.707107 0.707107 -1.79899e-16 0.00107613 -0.00107613 -0.999999 0.707106 -0.707106 0.00152188)
(0.707107 0.707107 -1.78512e-16 0.00104372 -0.00104372 -0.999999 0.707106 -0.707106 0.00147604)
(0.707107 0.707107 -1.7928e-16 0.00101192 -0.00101192 -0.999999 0.707106 -0.707106 0.00143107)
(0.707107 0.707107 -1.89232e-16 0.000981094 -0.000981094 -0.999999 0.707106 -0.707106 0.00138748)
(0.707107 0.707107 -1.89587e-16 0.000951618 -0.000951618 -0.999999 0.707106 -0.707106 0.00134579)
(0.707107 0.707107 -1.7869e-16 0.000922293 -0.000922293 -0.999999 0.707106 -0.707106 0.00130432)
(0.707107 0.707107 -1.6731e-16 0.000893878 -0.000893878 -0.999999 0.707106 -0.707106 0.00126413)
(0.707107 0.707107 -1.55123e-16 0.000866348 -0.000866348 -0.999999 0.707106 -0.707106 0.0012252)
(0.707107 0.707107 -1.56473e-16 0.000839677 -0.000839677 -0.999999 0.707106 -0.707106 0.00118748)
(0.707107 0.707107 -1.64727e-16 0.000813475 -0.000813475 -0.999999 0.707106 -0.707106 0.00115043)
(0.707107 0.707107 -1.68188e-16 0.000787726 -0.000787726 -0.999999 0.707106 -0.707106 0.00111401)
(0.707107 0.707107 -1.58981e-16 0.000763149 -0.000763149 -0.999999 0.707106 -0.707106 0.00107926)
(0.707107 0.707107 -1.4648e-16 0.000738991 -0.000738991 -0.999999 0.707106 -0.707106 0.00104509)
(0.707107 0.707107 -1.47078e-16 0.000715596 -0.000715596 -0.999999 0.707106 -0.707106 0.00101201)
(0.707107 0.707107 -1.41185e-16 0.000692241 -0.000692241 -1 0.707106 -0.707106 0.000978976)
(0.707107 0.707107 -1.22535e-16 0.000669267 -0.000669267 -1 0.707106 -0.707106 0.000946486)
(0.707107 0.707107 -1.02946e-16 0.000647723 -0.000647723 -1 0.707106 -0.707106 0.000916019)
(0.707107 0.707107 -8.78601e-17 0.000625837 -0.000625837 -1 0.707107 -0.707107 0.000885067)
(0.707107 0.707107 -8.12057e-17 0.0006043 -0.0006043 -1 0.707107 -0.707107 0.000854609)
(0.707107 0.707107 -7.81996e-17 0.000583794 -0.000583794 -1 0.707107 -0.707107 0.000825609)
(0.707107 0.707107 -7.49601e-17 0.000563274 -0.000563274 -1 0.707107 -0.707107 0.00079659)
(0.707107 0.707107 -7.49942e-17 0.000543411 -0.000543411 -1 0.707107 -0.707107 0.0007685)
(0.707107 0.707107 -7.99523e-17 0.000523862 -0.000523862 -1 0.707107 -0.707107 0.000740852)
(0.707107 0.707107 -7.76481e-17 0.000503951 -0.000503951 -1 0.707107 -0.707107 0.000712694)
(0.707107 0.707107 -6.34009e-17 0.000485002 -0.000485002 -1 0.707107 -0.707107 0.000685896)
(0.707107 0.707107 -4.01916e-17 0.00046667 -0.00046667 -1 0.707107 -0.707107 0.000659971)
(0.707107 0.707107 -3.10916e-17 0.000447967 -0.000447967 -1 0.707107 -0.707107 0.000633522)
(0.707107 0.707107 -3.87655e-17 0.000429865 -0.000429865 -1 0.707107 -0.707107 0.00060792)
(0.707107 0.707107 -4.23495e-17 0.000412034 -0.000412034 -1 0.707107 -0.707107 0.000582704)
(0.707107 0.707107 -3.84373e-17 0.000394147 -0.000394147 -1 0.707107 -0.707107 0.000557408)
(0.707107 0.707107 -2.73115e-17 0.000376838 -0.000376838 -1 0.707107 -0.707107 0.000532929)
(0.707107 0.707107 -2.25777e-17 0.000359779 -0.000359779 -1 0.707107 -0.707107 0.000508805)
(0.707107 0.707107 -4.08966e-17 0.000342657 -0.000342657 -1 0.707107 -0.707107 0.00048459)
(0.707107 0.707107 -6.28843e-17 0.00032547 -0.00032547 -1 0.707107 -0.707107 0.000460284)
(0.707107 0.707107 -5.80546e-17 0.000308832 -0.000308832 -1 0.707107 -0.707107 0.000436754)
(0.707107 0.707107 -6.91648e-17 0.000292731 -0.000292731 -1 0.707107 -0.707107 0.000413984)
(0.707107 0.707107 -9.20966e-17 0.000276253 -0.000276253 -1 0.707107 -0.707107 0.00039068)
(0.707107 0.707107 -1.01594e-16 0.000259699 -0.000259699 -1 0.707107 -0.707107 0.00036727)
(0.707107 0.707107 -1.0717e-16 0.00024367 -0.00024367 -1 0.707107 -0.707107 0.000344602)
(0.707107 0.707107 -1.18837e-16 0.000227858 -0.000227858 -1 0.707107 -0.707107 0.00032224)
(0.707107 0.707107 -1.21675e-16 0.000211965 -0.000211965 -1 0.707107 -0.707107 0.000299764)
(0.707107 0.707107 -1.11964e-16 0.00019599 -0.00019599 -1 0.707107 -0.707107 0.000277172)
(0.707107 0.707107 -1.11872e-16 0.000180225 -0.000180225 -1 0.707107 -0.707107 0.000254876)
(0.707107 0.707107 -1.14295e-16 0.000164377 -0.000164377 -1 0.707107 -0.707107 0.000232464)
(0.707107 0.707107 -1.15964e-16 0.000148731 -0.000148731 -1 0.707107 -0.707107 0.000210337)
(0.707107 0.707107 -1.09341e-16 0.000133285 -0.000133285 -1 0.707107 -0.707107 0.000188494)
(0.707107 0.707107 -8.5639e-17 0.000117468 -0.000117468 -1 0.707107 -0.707107 0.000166125)
(0.707107 0.707107 -6.09026e-17 0.000101846 -0.000101846 -1 0.707107 -0.707107 0.000144032)
(0.707107 0.707107 -4.66221e-17 8.64161e-05 -8.64161e-05 -1 0.707107 -0.707107 0.000122211)
(0.707107 0.707107 -3.28625e-17 7.08946e-05 -7.08946e-05 -1 0.707107 -0.707107 0.00010026)
(0.707107 0.707107 -1.95558e-17 5.52826e-05 -5.52826e-05 -1 0.707107 -0.707107 7.81815e-05)
(0.707107 0.707107 -1.74973e-17 3.93049e-05 -3.93049e-05 -1 0.707107 -0.707107 5.55856e-05)
(0.707107 0.707107 -5.4021e-18 2.35107e-05 -2.35107e-05 -1 0.707107 -0.707107 3.32492e-05)
(0.707107 0.707107 6.91716e-18 7.8981e-06 -7.8981e-06 -1 0.707107 -0.707107 1.11696e-05)
(0.707107 0.707107 4.9868e-14 0.674252 -0.674252 -0.301278 0.213036 -0.213036 0.953536)
(0.707107 0.707107 -1.05386e-16 0.5 -0.5 -0.707107 0.5 -0.5 0.707107)
(0.707107 0.707107 1.06493e-13 0.353892 -0.353892 -0.865749 0.612177 -0.612177 0.500479)
(0.707107 0.707107 4.4317e-14 0.262138 -0.262138 -0.928745 0.656722 -0.656722 0.370719)
(0.707107 0.707107 1.39377e-14 0.203244 -0.203244 -0.957801 0.677268 -0.677268 0.287431)
(0.707107 0.707107 2.1398e-15 0.16292 -0.16292 -0.973095 0.688082 -0.688082 0.230403)
(0.707107 0.707107 -2.26036e-15 0.133765 -0.133765 -0.981944 0.694339 -0.694339 0.189172)
(0.707107 0.707107 -3.61509e-15 0.111844 -0.111844 -0.987412 0.698205 -0.698205 0.158172)
(0.707107 0.707107 -3.76417e-15 0.0949051 -0.0949051 -0.990952 0.700709 -0.700709 0.134216)
(0.707107 0.707107 -3.50881e-15 0.0815503 -0.0815503 -0.993327 0.702388 -0.702388 0.11533)
(0.707107 0.707107 -3.14585e-15 0.0708559 -0.0708559 -0.994967 0.703548 -0.703548 0.100205)
(0.707107 0.707107 -2.77792e-15 0.0621747 -0.0621747 -0.996127 0.704368 -0.704368 0.0879283)
(0.707107 0.707107 -2.45137e-15 0.0550423 -0.0550423 -0.996966 0.704961 -0.704961 0.0778416)
(0.707107 0.707107 -2.16062e-15 0.0491195 -0.0491195 -0.997584 0.705399 -0.705399 0.0694654)
(0.707107 0.707107 -1.92411e-15 0.0441491 -0.0441491 -0.998049 0.705727 -0.705727 0.0624363)
(0.707107 0.707107 -1.72858e-15 0.0399362 -0.0399362 -0.998404 0.705978 -0.705978 0.0564783)
(0.707107 0.707107 -1.56148e-15 0.0363335 -0.0363335 -0.998679 0.706173 -0.706173 0.0513833)
(0.707107 0.707107 -1.42164e-15 0.0332279 -0.0332279 -0.998895 0.706326 -0.706326 0.0469914)
(0.707107 0.707107 -1.27907e-15 0.0305289 -0.0305289 -0.999068 0.706447 -0.706447 0.0431744)
(0.707107 0.707107 -1.15899e-15 0.0281666 -0.0281666 -0.999206 0.706546 -0.706546 0.0398336)
(0.707107 0.707107 -1.07001e-15 0.0260865 -0.0260865 -0.999319 0.706625 -0.706625 0.036892)
(0.707107 0.707107 -9.9147e-16 0.0242421 -0.0242421 -0.999412 0.706691 -0.706691 0.0342835)
(0.707107 0.707107 -9.20945e-16 0.0225985 -0.0225985 -0.999489 0.706746 -0.706746 0.0319592)
(0.707107 0.707107 -8.62186e-16 0.0211264 -0.0211264 -0.999554 0.706791 -0.706791 0.0298772)
(0.707107 0.707107 -8.0786e-16 0.0198001 -0.0198001 -0.999608 0.70683 -0.70683 0.0280016)
(0.707107 0.707107 -7.49102e-16 0.0186019 -0.0186019 -0.999654 0.706862 -0.706862 0.026307)
(0.707107 0.707107 -6.94296e-16 0.0175137 -0.0175137 -0.999693 0.70689 -0.70689 0.0247682)
(0.707107 0.707107 -6.50906e-16 0.0165223 -0.0165223 -0.999727 0.706914 -0.706914 0.023366)
(0.707107 0.707107 -6.13826e-16 0.0156165 -0.0156165 -0.999756 0.706934 -0.706934 0.022085)
(0.707107 0.707107 -5.76829e-16 0.0147858 -0.0147858 -0.999781 0.706952 -0.706952 0.0209102)
(0.707107 0.707107 -5.45203e-16 0.0140214 -0.0140214 -0.999803 0.706968 -0.706968 0.0198292)
(0.707107 0.707107 -5.2086e-16 0.0133165 -0.0133165 -0.999823 0.706981 -0.706981 0.0188324)
(0.707107 0.707107 -4.81365e-16 0.0126638 -0.0126638 -0.99984 0.706993 -0.706993 0.0179093)
(0.707107 0.707107 -4.44191e-16 0.0120584 -0.0120584 -0.999855 0.707004 -0.707004 0.0170531)
(0.707107 0.707107 -4.23593e-16 0.0114958 -0.0114958 -0.999868 0.707013 -0.707013 0.0162575)
(0.707107 0.707107 -3.97034e-16 0.0109727 -0.0109727 -0.99988 0.707022 -0.707022 0.0155177)
(0.707107 0.707107 -3.78951e-16 0.0104847 -0.0104847 -0.99989 0.707029 -0.707029 0.0148276)
(0.707107 0.707107 -3.59519e-16 0.0100267 -0.0100267 -0.999899 0.707036 -0.707036 0.01418)
(0.707107 0.707107 -3.42693e-16 0.00959881 -0.00959881 -0.999908 0.707042 -0.707042 0.0135748)
(0.707107 0.707107 -3.32813e-16 0.00919764 -0.00919764 -0.999915 0.707047 -0.707047 0.0130074)
(0.707107 0.707107 -3.18611e-16 0.00881997 -0.00881997 -0.999922 0.707052 -0.707052 0.0124733)
(0.707107 0.707107 -3.04619e-16 0.00846395 -0.00846395 -0.999928 0.707056 -0.707056 0.0119698)
(0.707107 0.707107 -2.81054e-16 0.00812905 -0.00812905 -0.999934 0.70706 -0.70706 0.0114962)
(0.707107 0.707107 -2.71967e-16 0.00781292 -0.00781292 -0.999939 0.707064 -0.707064 0.0110491)
(0.707107 0.707107 -2.68285e-16 0.00751294 -0.00751294 -0.999944 0.707067 -0.707067 0.0106249)
(0.707107 0.707107 -2.52222e-16 0.00723013 -0.00723013 -0.999948 0.70707 -0.70707 0.0102249)
(0.707107 0.707107 -2.44001e-16 0.00696187 -0.00696187 -0.999952 0.707073 -0.707073 0.00984557)
(0.707107 0.707107 -2.39274e-16 0.00670637 -0.00670637 -0.999955 0.707075 -0.707075 0.00948423)
(0.707107 0.707107 -2.35495e-16 0.0064647 -0.0064647 -0.999958 0.707077 -0.707077 0.00914247)
(0.707107 0.707107 -2.27396e-16 0.00623472 -0.00623472 -0.999961 0.707079 -0.707079 0.00881723)
(0.707107 0.707107 -2.12822e-16 0.00601519 -0.00601519 -0.999964 0.707081 -0.707081 0.00850677)
(0.707107 0.707107 -2.09513e-16 0.00580632 -0.00580632 -0.999966 0.707083 -0.707083 0.00821137)
(0.707107 0.707107 -2.00292e-16 0.00560657 -0.00560657 -0.999969 0.707085 -0.707085 0.00792888)
(0.707107 0.707107 -1.85527e-16 0.00541613 -0.00541613 -0.999971 0.707086 -0.707086 0.00765956)
(0.707107 0.707107 -1.78431e-16 0.00523406 -0.00523406 -0.999973 0.707087 -0.707087 0.00740207)
(0.707107 0.707107 -1.71671e-16 0.00506013 -0.00506013 -0.999974 0.707089 -0.707089 0.00715611)
(0.707107 0.707107 -1.62275e-16 0.00489337 -0.00489337 -0.999976 0.70709 -0.70709 0.00692028)
(0.707107 0.707107 -1.57045e-16 0.00473305 -0.00473305 -0.999978 0.707091 -0.707091 0.00669355)
(0.707107 0.707107 -1.46785e-16 0.00458004 -0.00458004 -0.999979 0.707092 -0.707092 0.00647716)
(0.707107 0.707107 -1.37421e-16 0.00443242 -0.00443242 -0.99998 0.707093 -0.707093 0.00626839)
(0.707107 0.707107 -1.43948e-16 0.00429058 -0.00429058 -0.999982 0.707094 -0.707094 0.0060678)
(0.707107 0.707107 -1.44388e-16 0.00415489 -0.00415489 -0.999983 0.707095 -0.707095 0.0058759)
(0.707107 0.707107 -1.30232e-16 0.00402402 -0.00402402 -0.999984 0.707095 -0.707095 0.00569082)
(0.707107 0.707107 -1.20109e-16 0.00389784 -0.00389784 -0.999985 0.707096 -0.707096 0.00551238)
(0.707107 0.707107 -1.23572e-16 0.00377622 -0.00377622 -0.999986 0.707097 -0.707097 0.00534038)
(0.707107 0.707107 -1.29672e-16 0.00365905 -0.00365905 -0.999987 0.707097 -0.707097 0.00517468)
(0.707107 0.707107 -1.26889e-16 0.0035461 -0.0035461 -0.999987 0.707098 -0.707098 0.00501495)
(0.707107 0.707107 -1.17773e-16 0.00343684 -0.00343684 -0.999988 0.707098 -0.707098 0.00486043)
(0.707107 0.707107 -1.11748e-16 0.00333112 -0.00333112 -0.999989 0.707099 -0.707099 0.00471092)
(0.707107 0.707107 -1.04642e-16 0.00322882 -0.00322882 -0.99999 0.707099 -0.707099 0.00456624)
(0.707107 0.707107 -9.76173e-17 0.00312988 -0.00312988 -0.99999 0.7071 -0.7071 0.00442632)
(0.707107 0.707107 -1.1293e-16 0.00303413 -0.00303413 -0.999991 0.7071 -0.7071 0.00429091)
(0.707107 0.707107 -1.2029e-16 0.0029411 -0.0029411 -0.999991 0.707101 -0.707101 0.00415935)
(0.707107 0.707107 -1.07831e-16 0.00285114 -0.00285114 -0.999992 0.707101 -0.707101 0.00403213)
(0.707107 0.707107 -1.12406e-16 0.00276415 -0.00276415 -0.999992 0.707101 -0.707101 0.0039091)
(0.707107 0.707107 -1.20241e-16 0.00267914 -0.00267914 -0.999993 0.707102 -0.707102 0.00378887)
(0.707107 0.707107 -1.18266e-16 0.00259653 -0.00259653 -0.999993 0.707102 -0.707102 0.00367205)
(0.707107 0.707107 -1.108e-16 0.00251669 -0.00251669 -0.999994 0.707102 -0.707102 0.00355914)
(0.707107 0.707107 -9.67207e-17 0.00243909 -0.00243909 -0.999994 0.707103 -0.707103 0.00344939)
(0.707107 0.707107 -9.39233e-17 0.00236324 -0.00236324 -0.999994 0.707103 -0.707103 0.00334213)
(0.707107 0.707107 -1.09726e-16 0.00228912 -0.00228912 -0.999995 0.707103 -0.707103 0.0032373)
(0.707107 0.707107 -1.14393e-16 0.00221708 -0.00221708 -0.999995 0.707103 -0.707103 0.00313542)
(0.707107 0.707107 -1.07003e-16 0.00214709 -0.00214709 -0.999995 0.707104 -0.707104 0.00303645)
(0.707107 0.707107 -1.00397e-16 0.00207868 -0.00207868 -0.999996 0.707104 -0.707104 0.00293969)
(0.707107 0.707107 -9.55879e-17 0.00201136 -0.00201136 -0.999996 0.707104 -0.707104 0.0028445)
(0.707107 0.707107 -8.99834e-17 0.00194595 -0.00194595 -0.999996 0.707104 -0.707104 0.00275198)
(0.707107 0.707107 -7.60355e-17 0.00188242 -0.00188242 -0.999996 0.707104 -0.707104 0.00266214)
(0.707107 0.707107 -6.45052e-17 0.0018199 -0.0018199 -0.999997 0.707104 -0.707104 0.00257372)
(0.707107 0.707107 -5.31583e-17 0.00175875 -0.00175875 -0.999997 0.707105 -0.707105 0.00248725)
(0.707107 0.707107 -4.74613e-17 0.00169857 -0.00169857 -0.999997 0.707105 -0.707105 0.00240214)
(0.707107 0.707107 -5.04552e-17 0.00163969 -0.00163969 -0.999997 0.707105 -0.707105 0.00231888)
(0.707107 0.707107 -4.78358e-17 0.00158254 -0.00158254 -0.999997 0.707105 -0.707105 0.00223805)
(0.707107 0.707107 -5.11616e-17 0.00152622 -0.00152622 -0.999998 0.707105 -0.707105 0.00215841)
(0.707107 0.707107 -5.90294e-17 0.00147039 -0.00147039 -0.999998 0.707105 -0.707105 0.00207944)
(0.707107 0.707107 -4.81047e-17 0.00141575 -0.00141575 -0.999998 0.707105 -0.707105 0.00200217)
(0.707107 0.707107 -3.65354e-17 0.00136232 -0.00136232 -0.999998 0.707105 -0.707105 0.00192661)
(0.707107 0.707107 -2.59611e-17 0.00130968 -0.00130968 -0.999998 0.707106 -0.707106 0.00185217)
(0.707107 0.707107 -1.67634e-17 0.00125781 -0.00125781 -0.999998 0.707106 -0.707106 0.00177881)
(0.707107 0.707107 -2.64279e-17 0.00120668 -0.00120668 -0.999999 0.707106 -0.707106 0.0017065)
(0.707107 0.707107 -3.25675e-17 0.00115628 -0.00115628 -0.999999 0.707106 -0.707106 0.00163522)
(0.707107 0.707107 -2.83823e-17 0.00110623 -0.00110623 -0.999999 0.707106 -0.707106 0.00156445)
(0.707107 0.707107 -1.96926e-17 0.00105726 -0.00105726 -0.999999 0.707106 -0.707106 0.00149519)
(0.707107 0.707107 -2.1007e-17 0.00100897 -0.00100897 -0.999999 0.707106 -0.707106 0.0014269)
(0.707107 0.707107 -3.68034e-17 0.000960999 -0.000960999 -0.999999 0.707106 -0.707106 0.00135906)
(0.707107 0.707107 -5.07508e-17 0.000913684 -0.000913684 -0.999999 0.707106 -0.707106 0.00129214)
(0.707107 0.707107 -3.76918e-17 0.000867016 -0.000867016 -0.999999 0.707106 -0.707106 0.00122615)
(0.707107 0.707107 -4.59039e-17 0.00082063 -0.00082063 -0.999999 0.707106 -0.707106 0.00116055)
(0.707107 0.707107 -7.00607e-17 0.00077451 -0.00077451 -0.999999 0.707106 -0.707106 0.00109532)
(0.707107 0.707107 -7.81722e-17 0.000728657 -0.000728657 -0.999999 0.707106 -0.707106 0.00103048)
(0.707107 0.707107 -8.66861e-17 0.000683408 -0.000683408 -1 0.707106 -0.707106 0.000966485)
(0.707107 0.707107 -8.8992e-17 0.000638761 -0.000638761 -1 0.707106 -0.707106 0.000903344)
(0.707107 0.707107 -8.72096e-17 0.000593998 -0.000593998 -1 0.707107 -0.707107 0.00084004)
(0.707107 0.707107 -8.55427e-17 0.00054947 -0.00054947 -1 0.707107 -0.707107 0.000777069)
(0.707107 0.707107 -9.27451e-17 0.000505173 -0.000505173 -1 0.707107 -0.707107 0.000714423)
(0.707107 0.707107 -9.62975e-17 0.000461098 -0.000461098 -1 0.707107 -0.707107 0.000652092)
(0.707107 0.707107 -8.91436e-17 0.000417241 -0.000417241 -1 0.707107 -0.707107 0.000590067)
(0.707107 0.707107 -7.98226e-17 0.000373253 -0.000373253 -1 0.707107 -0.707107 0.000527859)
(0.707107 0.707107 -6.85533e-17 0.000329476 -0.000329476 -1 0.707107 -0.707107 0.000465949)
(0.707107 0.707107 -5.18102e-17 0.000285901 -0.000285901 -1 0.707107 -0.707107 0.000404325)
(0.707107 0.707107 -3.79043e-17 0.00024219 -0.00024219 -1 0.707107 -0.707107 0.000342509)
(0.707107 0.707107 -2.17921e-17 0.000198346 -0.000198346 -1 0.707107 -0.707107 0.000280503)
(0.707107 0.707107 -1.7846e-17 0.000154364 -0.000154364 -1 0.707107 -0.707107 0.000218304)
(0.707107 0.707107 -2.17028e-17 0.00011057 -0.00011057 -1 0.707107 -0.707107 0.00015637)
(0.707107 0.707107 -3.16827e-19 6.66357e-05 -6.66357e-05 -1 0.707107 -0.707107 9.42371e-05)
(0.707107 0.707107 1.02173e-17 2.22354e-05 -2.22354e-05 -1 0.707107 -0.707107 3.14456e-05)
(0.707107 0.707107 3.45196e-14 0.695287 -0.695287 -0.182079 0.128749 -0.128749 0.983284)
(0.707107 0.707107 -1.06477e-13 0.612177 -0.612177 -0.500479 0.353892 -0.353892 0.865749)
(0.707107 0.707107 1.12615e-16 0.5 -0.5 -0.707107 0.5 -0.5 0.707107)
(0.707107 0.707107 2.70485e-14 0.400873 -0.400873 -0.823773 0.582495 -0.582495 0.56692)
(0.707107 0.707107 2.19982e-14 0.324025 -0.324025 -0.888828 0.628497 -0.628497 0.45824)
(0.707107 0.707107 1.31662e-14 0.265689 -0.265689 -0.926725 0.655293 -0.655293 0.375741)
(0.707107 0.707107 6.67414e-15 0.221027 -0.221027 -0.949892 0.671675 -0.671675 0.31258)
(0.707107 0.707107 2.81601e-15 0.186356 -0.186356 -0.964647 0.682108 -0.682108 0.263547)
(0.707107 0.707107 7.35923e-16 0.159065 -0.159065 -0.97437 0.688984 -0.688984 0.224952)
(0.707107 0.707107 -3.29768e-16 0.137301 -0.137301 -0.980967 0.693649 -0.693649 0.194173)
(0.707107 0.707107 -8.35611e-16 0.119735 -0.119735 -0.985559 0.696896 -0.696896 0.169331)
(0.707107 0.707107 -1.06125e-15 0.105393 -0.105393 -0.98883 0.699208 -0.699208 0.149048)
(0.707107 0.707107 -1.14595e-15 0.0935506 -0.0935506 -0.99121 0.700891 -0.700891 0.132301)
(0.707107 0.707107 -1.14072e-15 0.0836709 -0.0836709 -0.992975 0.702139 -0.702139 0.118328)
(0.707107 0.707107 -1.09893e-15 0.0753473 -0.0753473 -0.994307 0.703081 -0.703081 0.106557)
(0.707107 0.707107 -1.04133e-15 0.0682709 -0.0682709 -0.995328 0.703803 -0.703803 0.0965496)
(0.707107 0.707107 -9.93466e-16 0.0622 -0.0622 -0.996124 0.704366 -0.704366 0.087964)
(0.707107 0.707107 -9.41683e-16 0.0569493 -0.0569493 -0.996752 0.70481 -0.70481 0.0805384)
(0.707107 0.707107 -8.57324e-16 0.0523756 -0.0523756 -0.997253 0.705164 -0.705164 0.0740703)
(0.707107 0.707107 -8.0047e-16 0.0483636 -0.0483636 -0.997658 0.705451 -0.705451 0.0683964)
(0.707107 0.707107 -7.65805e-16 0.0448218 -0.0448218 -0.997989 0.705685 -0.705685 0.0633876)
(0.707107 0.707107 -7.19667e-16 0.0416784 -0.0416784 -0.998261 0.705877 -0.705877 0.0589422)
(0.707107 0.707107 -6.8241e-16 0.0388703 -0.0388703 -0.998488 0.706038 -0.706038 0.0549709)
(0.707107 0.707107 -6.42611e-16 0.0363509 -0.0363509 -0.998678 0.706172 -0.706172 0.0514079)
(0.707107 0.707107 -5.94899e-16 0.0340817 -0.0340817 -0.998838 0.706285 -0.706285 0.0481988)
(0.707107 0.707107 -5.50401e-16 0.0320273 -0.0320273 -0.998974 0.706381 -0.706381 0.0452934)
(0.707107 0.707107 -5.12839e-16 0.03016 -0.03016 -0.99909 0.706463 -0.706463 0.0426526)
(0.707107 0.707107 -4.92789e-16 0.0284571 -0.0284571 -0.99919 0.706534 -0.706534 0.0402444)
(0.707107 0.707107 -4.63132e-16 0.0268989 -0.0268989 -0.999276 0.706595 -0.706595 0.0380408)
(0.707107 0.707107 -4.27218e-16 0.0254731 -0.0254731 -0.999351 0.706648 -0.706648 0.0360245)
(0.707107 0.707107 -4.1095e-16 0.0241507 -0.0241507 -0.999417 0.706694 -0.706694 0.0341542)
(0.707107 0.707107 -4.02759e-16 0.0229321 -0.0229321 -0.999474 0.706735 -0.706735 0.0324308)
(0.707107 0.707107 -3.72474e-16 0.0218156 -0.0218156 -0.999524 0.70677 -0.70677 0.030852)
(0.707107 0.707107 -3.49264e-16 0.0207747 -0.0207747 -0.999568 0.706802 -0.706802 0.0293798)
(0.707107 0.707107 -3.41572e-16 0.0198045 -0.0198045 -0.999608 0.706829 -0.706829 0.0280078)
(0.707107 0.707107 -3.11385e-16 0.0188927 -0.0188927 -0.999643 0.706854 -0.706854 0.0267184)
(0.707107 0.707107 -2.94624e-16 0.0180518 -0.0180518 -0.999674 0.706876 -0.706876 0.0255292)
(0.707107 0.707107 -2.9381e-16 0.0172624 -0.0172624 -0.999702 0.706896 -0.706896 0.0244127)
(0.707107 0.707107 -2.9211e-16 0.0165215 -0.0165215 -0.999727 0.706914 -0.706914 0.023365)
(0.707107 0.707107 -2.81766e-16 0.0158343 -0.0158343 -0.999749 0.706929 -0.706929 0.0223931)
(0.707107 0.707107 -2.59894e-16 0.0151758 -0.0151758 -0.99977 0.706944 -0.706944 0.0214618)
(0.707107 0.707107 -2.48161e-16 0.0145588 -0.0145588 -0.999788 0.706957 -0.706957 0.0205893)
(0.707107 0.707107 -2.2567e-16 0.013989 -0.013989 -0.999804 0.706968 -0.706968 0.0197834)
(0.707107 0.707107 -2.20857e-16 0.0134427 -0.0134427 -0.999819 0.706979 -0.706979 0.0190109)
(0.707107 0.707107 -2.27861e-16 0.0129185 -0.0129185 -0.999833 0.706989 -0.706989 0.0182696)
(0.707107 0.707107 -2.09831e-16 0.0124296 -0.0124296 -0.999845 0.706998 -0.706998 0.0175781)
(0.707107 0.707107 -1.98265e-16 0.0119605 -0.0119605 -0.999857 0.707006 -0.707006 0.0169147)
(0.707107 0.707107 -1.96984e-16 0.0115241 -0.0115241 -0.999867 0.707013 -0.707013 0.0162975)
(0.707107 0.707107 -2.03768e-16 0.0111055 -0.0111055 -0.999877 0.70702 -0.70702 0.0157056)
(0.707107 0.707107 -1.98816e-16 0.0107041 -0.0107041 -0.999885 0.707026 -0.707026 0.0151379)
(0.707107 0.707107 -1.7785e-16 0.0103321 -0.0103321 -0.999893 0.707031 -0.707031 0.0146118)
(0.707107 0.707107 -1.83108e-16 0.00996919 -0.00996919 -0.999901 0.707037 -0.707037 0.0140986)
(0.707107 0.707107 -1.77553e-16 0.00962123 -0.00962123 -0.999907 0.707041 -0.707041 0.0136065)
(0.707107 0.707107 -1.60061e-16 0.009294 -0.009294 -0.999914 0.707046 -0.707046 0.0131437)
(0.707107 0.707107 -1.58123e-16 0.0089742 -0.0089742 -0.999919 0.70705 -0.70705 0.0126914)
(0.707107 0.707107 -1.52783e-16 0.00867395 -0.00867395 -0.999925 0.707054 -0.707054 0.0122668)
(0.707107 0.707107 -1.47967e-16 0.00839269 -0.00839269 -0.99993 0.707057 -0.707057 0.0118691)
(0.707107 0.707107 -1.47266e-16 0.00811133 -0.00811133 -0.999934 0.70706 -0.70706 0.0114712)
(0.707107 0.707107 -1.34384e-16 0.00784811 -0.00784811 -0.999938 0.707063 -0.707063 0.0110989)
(0.707107 0.707107 -1.3161e-16 0.00759632 -0.00759632 -0.999942 0.707066 -0.707066 0.0107428)
(0.707107 0.707107 -1.49752e-16 0.00734378 -0.00734378 -0.999946 0.707069 -0.707069 0.0103857)
(0.707107 0.707107 -1.5051e-16 0.00710804 -0.00710804 -0.999949 0.707071 -0.707071 0.0100523)