/*--------------------------------*- C++ -*----------------------------------*\
| =========                 |                                                 |
| \\      /  F ield         | OpenFOAM: The Open Source CFD Toolbox           |
|  \\    /   O peration     | Version:  2306                                  |
|   \\  /    A nd           | Website:  www.openfoam.com                      |
|    \\/     M anipulation  |                                                 |
\*---------------------------------------------------------------------------*/
// * * * * * * * * * * * * * * * * * * * * * * * * * * * * * * * * * * * * * //
FoamFile
{
    version         2;
    format          ascii;
    class           volSymmTensorField;
    location        "98.28";
    object          Rdns;
}

dimensions      [ 0 2 -2 0 0 0 0 ];

internalField   nonuniform List<symmTensor> 
15625
(
(1.25305e-07 -2.27481e-11 -2.27481e-11 8.44768e-12 -4.94973e-11 8.44768e-12)
(5.14535e-07 -6.91293e-10 -9.85952e-11 5.03522e-10 -6.50282e-11 1.6886e-11)
(8.08453e-07 -2.4558e-09 -1.05347e-10 2.79215e-09 -2.77171e-10 6.97612e-11)
(1.01653e-06 -4.8928e-09 -1.6612e-10 8.32715e-09 -7.21513e-10 1.44183e-10)
(1.18501e-06 -7.18319e-09 -2.51892e-10 2.0546e-08 -1.56102e-09 2.2407e-10)
(1.34968e-06 -9.46387e-09 -3.71371e-10 4.17178e-08 -2.72828e-09 3.03695e-10)
(1.53374e-06 -1.21785e-08 -5.19572e-10 7.45294e-08 -4.20082e-09 3.83168e-10)
(1.75263e-06 -1.60669e-08 -7.22044e-10 1.21264e-07 -5.93665e-09 4.59877e-10)
(2.01686e-06 -2.20621e-08 -1.06608e-09 1.83135e-07 -7.81924e-09 5.32296e-10)
(2.33407e-06 -3.03832e-08 -1.67515e-09 2.60882e-07 -9.77597e-09 6.02377e-10)
(2.71024e-06 -4.06833e-08 -2.68315e-09 3.54732e-07 -1.17461e-08 6.72667e-10)
(3.14962e-06 -5.18359e-08 -4.21665e-09 4.64016e-07 -1.36558e-08 7.43931e-10)
(3.6546e-06 -6.20967e-08 -6.37179e-09 5.87733e-07 -1.54515e-08 8.17039e-10)
(4.22479e-06 -6.88202e-08 -9.1868e-09 7.24642e-07 -1.71268e-08 8.93672e-10)
(4.85819e-06 -6.92578e-08 -1.265e-08 8.73573e-07 -1.86831e-08 9.74441e-10)
(5.54933e-06 -6.07161e-08 -1.6655e-08 1.0334e-06 -2.01259e-08 1.0574e-09)
(6.29134e-06 -4.07314e-08 -2.10703e-08 1.20301e-06 -2.14592e-08 1.14008e-09)
(7.07509e-06 -7.74874e-09 -2.57306e-08 1.38157e-06 -2.26807e-08 1.21955e-09)
(7.89052e-06 3.94736e-08 -3.04599e-08 1.56822e-06 -2.37845e-08 1.29287e-09)
(8.72696e-06 1.00899e-07 -3.50916e-08 1.76198e-06 -2.47484e-08 1.35831e-09)
(9.57342e-06 1.75816e-07 -3.9463e-08 1.96181e-06 -2.55415e-08 1.41485e-09)
(1.04195e-05 2.63015e-07 -4.34524e-08 2.16647e-06 -2.61405e-08 1.46244e-09)
(1.12568e-05 3.60573e-07 -4.70137e-08 2.37461e-06 -2.65363e-08 1.50266e-09)
(1.20767e-05 4.66356e-07 -5.01062e-08 2.58468e-06 -2.67217e-08 1.53721e-09)
(1.28729e-05 5.78089e-07 -5.27094e-08 2.7954e-06 -2.6703e-08 1.56711e-09)
(1.36393e-05 6.93299e-07 -5.48107e-08 3.00538e-06 -2.64924e-08 1.59302e-09)
(1.43714e-05 8.09585e-07 -5.64126e-08 3.21336e-06 -2.6104e-08 1.61567e-09)
(1.50669e-05 9.24779e-07 -5.75609e-08 3.41826e-06 -2.55546e-08 1.63593e-09)
(1.57245e-05 1.03676e-06 -5.83115e-08 3.61912e-06 -2.48624e-08 1.65473e-09)
(1.63432e-05 1.1436e-06 -5.87161e-08 3.81491e-06 -2.4044e-08 1.67313e-09)
(1.69236e-05 1.24388e-06 -5.8821e-08 4.00497e-06 -2.31134e-08 1.69236e-09)
(1.74659e-05 1.33613e-06 -5.86731e-08 4.18846e-06 -2.20856e-08 1.71369e-09)
(1.79715e-05 1.4192e-06 -5.83175e-08 4.36487e-06 -2.09818e-08 1.73763e-09)
(1.84428e-05 1.49233e-06 -5.77974e-08 4.53404e-06 -1.98298e-08 1.76391e-09)
(1.88819e-05 1.55474e-06 -5.71573e-08 4.69573e-06 -1.86581e-08 1.79221e-09)
(1.92916e-05 1.60594e-06 -5.64432e-08 4.84978e-06 -1.74778e-08 1.82269e-09)
(1.96743e-05 1.64574e-06 -5.57021e-08 4.99607e-06 -1.62847e-08 1.8559e-09)
(2.00331e-05 1.67399e-06 -5.49828e-08 5.13447e-06 -1.50743e-08 1.89242e-09)
(2.03708e-05 1.69109e-06 -5.4334e-08 5.26496e-06 -1.38597e-08 1.9328e-09)
(2.06907e-05 1.69797e-06 -5.38044e-08 5.38759e-06 -1.267e-08 1.9775e-09)
(2.0996e-05 1.69564e-06 -5.34435e-08 5.5024e-06 -1.15358e-08 2.02699e-09)
(2.12893e-05 1.68528e-06 -5.32703e-08 5.60987e-06 -1.04797e-08 2.08093e-09)
(2.15723e-05 1.66836e-06 -5.32678e-08 5.71088e-06 -9.51523e-09 2.13803e-09)
(2.18469e-05 1.64635e-06 -5.34159e-08 5.80644e-06 -8.65522e-09 2.19692e-09)
(2.21151e-05 1.62045e-06 -5.36976e-08 5.89744e-06 -7.90623e-09 2.2569e-09)
(2.23787e-05 1.59124e-06 -5.41011e-08 5.98464e-06 -7.26303e-09 2.31841e-09)
(2.26399e-05 1.55928e-06 -5.46147e-08 6.0688e-06 -6.71874e-09 2.38206e-09)
(2.29002e-05 1.52504e-06 -5.52201e-08 6.1507e-06 -6.26433e-09 2.44797e-09)
(2.31591e-05 1.48869e-06 -5.58799e-08 6.23117e-06 -5.88375e-09 2.51486e-09)
(2.34155e-05 1.4504e-06 -5.65512e-08 6.31101e-06 -5.55952e-09 2.58102e-09)
(2.3669e-05 1.41029e-06 -5.72013e-08 6.39097e-06 -5.27447e-09 2.64524e-09)
(2.39212e-05 1.36852e-06 -5.78679e-08 6.47097e-06 -5.01898e-09 2.70914e-09)
(2.41752e-05 1.32524e-06 -5.86197e-08 6.55062e-06 -4.78617e-09 2.77567e-09)
(2.44338e-05 1.2806e-06 -5.95239e-08 6.62953e-06 -4.56989e-09 2.84766e-09)
(2.46978e-05 1.23493e-06 -6.05848e-08 6.70796e-06 -4.37974e-09 2.92543e-09)
(2.49654e-05 1.1887e-06 -6.17492e-08 6.78669e-06 -4.23997e-09 3.00689e-09)
(2.52353e-05 1.14239e-06 -6.29597e-08 6.86656e-06 -4.176e-09 3.08979e-09)
(2.55067e-05 1.09635e-06 -6.41755e-08 6.94815e-06 -4.19332e-09 3.17238e-09)
(2.57815e-05 1.05056e-06 -6.53936e-08 7.03146e-06 -4.25361e-09 3.25405e-09)
(2.60619e-05 1.00498e-06 -6.66152e-08 7.11638e-06 -4.31161e-09 3.33429e-09)
(2.63497e-05 9.59506e-07 -6.78425e-08 7.20279e-06 -4.32728e-09 3.41296e-09)
(2.66452e-05 9.13857e-07 -6.90772e-08 7.29024e-06 -4.29971e-09 3.49198e-09)
(2.69478e-05 8.67667e-07 -7.03215e-08 7.37815e-06 -4.24309e-09 3.57417e-09)
(2.72571e-05 8.20573e-07 -7.15773e-08 7.46597e-06 -4.17238e-09 3.66227e-09)
(2.75727e-05 7.72536e-07 -7.28409e-08 7.55372e-06 -4.10925e-09 3.75608e-09)
(2.7895e-05 7.23835e-07 -7.41036e-08 7.6421e-06 -4.08247e-09 3.85229e-09)
(2.82242e-05 6.74787e-07 -7.53556e-08 7.73186e-06 -4.12205e-09 3.94729e-09)
(2.85604e-05 6.25545e-07 -7.65908e-08 7.82352e-06 -4.24134e-09 4.03857e-09)
(2.8904e-05 5.75718e-07 -7.78153e-08 7.91702e-06 -4.40159e-09 4.12707e-09)
(2.92552e-05 5.24804e-07 -7.90378e-08 8.01217e-06 -4.55304e-09 4.21445e-09)
(2.96145e-05 4.72366e-07 -8.02695e-08 8.10874e-06 -4.64926e-09 4.30231e-09)
(2.99839e-05 4.18683e-07 -8.15516e-08 8.20636e-06 -4.69479e-09 4.39152e-09)
(3.03666e-05 3.64486e-07 -8.29436e-08 8.30457e-06 -4.72529e-09 4.48251e-09)
(3.07658e-05 3.1053e-07 -8.45067e-08 8.4029e-06 -4.7778e-09 4.57571e-09)
(3.11817e-05 2.57615e-07 -8.62551e-08 8.50117e-06 -4.86883e-09 4.67075e-09)
(3.16097e-05 2.06565e-07 -8.81194e-08 8.59974e-06 -4.97813e-09 4.76599e-09)
(3.2044e-05 1.58238e-07 -9.00195e-08 8.69904e-06 -5.08107e-09 4.85956e-09)
(3.24801e-05 1.13353e-07 -9.18835e-08 8.79937e-06 -5.15619e-09 4.95002e-09)
(3.29182e-05 7.17095e-08 -9.36988e-08 8.90032e-06 -5.20369e-09 5.03845e-09)
(3.33603e-05 3.27986e-08 -9.54726e-08 9.00111e-06 -5.23147e-09 5.12688e-09)
(3.38083e-05 -3.91995e-09 -9.72124e-08 9.10103e-06 -5.24769e-09 5.21733e-09)
(3.42608e-05 -3.89146e-08 -9.89161e-08 9.1999e-06 -5.25995e-09 5.31001e-09)
(3.47127e-05 -7.25708e-08 -1.0057e-07 9.29806e-06 -5.2752e-09 5.40322e-09)
(3.51585e-05 -1.05292e-07 -1.02161e-07 9.39595e-06 -5.30059e-09 5.49515e-09)
(3.55945e-05 -1.37277e-07 -1.03691e-07 9.49384e-06 -5.33806e-09 5.58446e-09)
(3.60212e-05 -1.68086e-07 -1.0521e-07 9.59155e-06 -5.37355e-09 5.6714e-09)
(3.64403e-05 -1.97156e-07 -1.0678e-07 9.68884e-06 -5.38958e-09 5.75658e-09)
(3.6853e-05 -2.2392e-07 -1.08459e-07 9.78537e-06 -5.36896e-09 5.84056e-09)
(3.72576e-05 -2.48045e-07 -1.10246e-07 9.88062e-06 -5.30229e-09 5.92393e-09)
(3.76503e-05 -2.69321e-07 -1.1211e-07 9.97389e-06 -5.18444e-09 6.00728e-09)
(3.80273e-05 -2.87529e-07 -1.14016e-07 1.00644e-05 -5.01053e-09 6.09119e-09)
(3.83857e-05 -3.02666e-07 -1.15915e-07 1.01517e-05 -4.79204e-09 6.17544e-09)
(3.87242e-05 -3.15032e-07 -1.17732e-07 1.02351e-05 -4.56405e-09 6.2587e-09)
(3.90415e-05 -3.24958e-07 -1.19389e-07 1.03143e-05 -4.36459e-09 6.33949e-09)
(3.93376e-05 -3.32583e-07 -1.20856e-07 1.03892e-05 -4.22313e-09 6.41682e-09)
(3.9616e-05 -3.3731e-07 -1.2228e-07 1.04609e-05 -4.13421e-09 6.49152e-09)
(3.98817e-05 -3.38353e-07 -1.23852e-07 1.05307e-05 -4.08409e-09 6.56493e-09)
(4.01389e-05 -3.35056e-07 -1.2574e-07 1.05999e-05 -4.06101e-09 6.6383e-09)
(4.03847e-05 -3.282e-07 -1.27798e-07 1.06691e-05 -4.07657e-09 6.71203e-09)
(4.06123e-05 -3.19408e-07 -1.29701e-07 1.07381e-05 -4.156e-09 6.78602e-09)
(4.08149e-05 -3.10355e-07 -1.31121e-07 1.08071e-05 -4.32393e-09 6.86013e-09)
(4.09941e-05 -3.02359e-07 -1.32028e-07 1.08762e-05 -4.55714e-09 6.93306e-09)
(4.11615e-05 -2.96294e-07 -1.32757e-07 1.09466e-05 -4.77428e-09 7.00216e-09)
(4.13299e-05 -2.9303e-07 -1.33674e-07 1.10191e-05 -4.88812e-09 7.0646e-09)
(4.15071e-05 -2.92797e-07 -1.34974e-07 1.1094e-05 -4.85793e-09 7.11959e-09)
(4.16879e-05 -2.94266e-07 -1.36427e-07 1.11704e-05 -4.75649e-09 7.17117e-09)
(4.18656e-05 -2.9584e-07 -1.37736e-07 1.12468e-05 -4.6753e-09 7.22426e-09)
(4.20348e-05 -2.96124e-07 -1.3869e-07 1.13222e-05 -4.67919e-09 7.28237e-09)
(4.21986e-05 -2.94792e-07 -1.39491e-07 1.13956e-05 -4.70323e-09 7.34244e-09)
(4.23623e-05 -2.91819e-07 -1.40467e-07 1.14667e-05 -4.64385e-09 7.3994e-09)
(4.25301e-05 -2.86959e-07 -1.41899e-07 1.15348e-05 -4.41363e-09 7.44899e-09)
(4.26945e-05 -2.78256e-07 -1.43632e-07 1.15995e-05 -4.07459e-09 7.49411e-09)
(4.28428e-05 -2.62889e-07 -1.45301e-07 1.16609e-05 -3.76225e-09 7.54119e-09)
(4.29628e-05 -2.3838e-07 -1.4655e-07 1.17188e-05 -3.60483e-09 7.5962e-09)
(4.30596e-05 -2.07737e-07 -1.47362e-07 1.17735e-05 -3.57701e-09 7.65637e-09)
(4.31504e-05 -1.77932e-07 -1.47957e-07 1.18257e-05 -3.54362e-09 7.71263e-09)
(4.32524e-05 -1.55847e-07 -1.48559e-07 1.18761e-05 -3.36886e-09 7.75594e-09)
(4.33647e-05 -1.40983e-07 -1.4923e-07 1.1924e-05 -3.03112e-09 7.78526e-09)
(4.34702e-05 -1.25922e-07 -1.49885e-07 1.19674e-05 -2.61551e-09 7.80709e-09)
(4.35509e-05 -1.03184e-07 -1.50435e-07 1.20044e-05 -2.21103e-09 7.82823e-09)
(4.36072e-05 -7.60264e-08 -1.50906e-07 1.20342e-05 -1.83666e-09 7.85182e-09)
(4.36589e-05 -5.94253e-08 -1.51454e-07 1.20576e-05 -1.43491e-09 7.87689e-09)
(4.37264e-05 -6.86188e-08 -1.52238e-07 1.20756e-05 -9.45492e-10 7.90222e-09)
(4.38051e-05 -9.7797e-08 -1.53155e-07 1.20882e-05 -3.83137e-10 7.92458e-09)
(4.38616e-05 -1.17317e-07 -1.53814e-07 1.20949e-05 1.52471e-10 7.93851e-09)
(5.14535e-07 -9.85952e-11 -6.91293e-10 1.6886e-11 -6.50282e-11 5.03522e-10)
(2.70961e-06 -3.49777e-09 -3.49777e-09 2.89337e-09 -1.11275e-09 2.89337e-09)
(4.79529e-06 -1.36522e-08 -5.57357e-09 1.85885e-08 -6.31262e-09 6.91607e-09)
(6.49571e-06 -2.88991e-08 -7.49076e-09 6.16236e-08 -1.81597e-08 1.20368e-08)
(7.99831e-06 -4.55173e-08 -9.68843e-09 1.52207e-07 -3.79094e-08 1.76177e-08)
(9.51897e-06 -6.45468e-08 -1.23448e-08 3.09088e-07 -6.53341e-08 2.32708e-08)
(1.1224e-05 -8.94822e-08 -1.5879e-08 5.50574e-07 -9.95649e-08 2.87466e-08)
(1.32377e-05 -1.25436e-07 -2.15119e-08 8.91625e-07 -1.39167e-07 3.39289e-08)
(1.56524e-05 -1.77916e-07 -3.14443e-08 1.34191e-06 -1.82198e-07 3.88286e-08)
(1.85392e-05 -2.47387e-07 -4.8788e-08 1.90606e-06 -2.26904e-07 4.3517e-08)
(2.19556e-05 -3.29984e-07 -7.68792e-08 2.5849e-06 -2.71678e-07 4.80969e-08)
(2.59424e-05 -4.15421e-07 -1.18741e-07 3.37406e-06 -3.15162e-07 5.27023e-08)
(3.0523e-05 -4.88996e-07 -1.76591e-07 4.26692e-06 -3.56365e-07 5.7442e-08)
(3.5695e-05 -5.29899e-07 -2.51155e-07 5.25488e-06 -3.94994e-07 6.23687e-08)
(4.1441e-05 -5.1671e-07 -3.42005e-07 6.32983e-06 -4.30941e-07 6.74845e-08)
(4.77109e-05 -4.28649e-07 -4.46546e-07 7.48396e-06 -4.64279e-07 7.26905e-08)
(5.44422e-05 -2.46794e-07 -5.61568e-07 8.7095e-06 -4.95049e-07 7.78566e-08)
(6.15521e-05 4.05854e-08 -6.83004e-07 1.00002e-05 -5.23142e-07 8.27996e-08)
(6.89493e-05 4.42781e-07 -8.06511e-07 1.13496e-05 -5.48376e-07 8.73303e-08)
(7.65368e-05 9.59461e-07 -9.28058e-07 1.27509e-05 -5.70343e-07 9.13496e-08)
(8.42145e-05 1.58522e-06 -1.04375e-06 1.41972e-05 -5.88514e-07 9.48063e-08)
(9.1888e-05 2.31066e-06 -1.15054e-06 1.56803e-05 -6.02469e-07 9.76962e-08)
(9.94818e-05 3.12068e-06 -1.24704e-06 1.71916e-05 -6.12006e-07 1.00096e-07)
(0.000106917 3.9984e-06 -1.33195e-06 1.87214e-05 -6.1695e-07 1.02088e-07)
(0.000114137 4.92547e-06 -1.40471e-06 2.02609e-05 -6.1734e-07 1.0374e-07)
(0.000121087 5.88174e-06 -1.46507e-06 2.18004e-05 -6.13313e-07 1.0511e-07)
(0.000127725 6.8477e-06 -1.51308e-06 2.33309e-05 -6.05069e-07 1.06262e-07)
(0.000134031 7.80605e-06 -1.54977e-06 2.4844e-05 -5.92969e-07 1.07258e-07)
(0.000139994 8.73993e-06 -1.57638e-06 2.63319e-05 -5.7741e-07 1.08164e-07)
(0.000145604 9.63376e-06 -1.59412e-06 2.77868e-05 -5.58792e-07 1.0905e-07)
(0.000150866 1.04758e-05 -1.60415e-06 2.92035e-05 -5.37484e-07 1.09994e-07)
(0.000155782 1.12538e-05 -1.60764e-06 3.05758e-05 -5.13883e-07 1.11076e-07)
(0.000160365 1.19582e-05 -1.60571e-06 3.18993e-05 -4.88464e-07 1.12331e-07)
(0.000164636 1.25827e-05 -1.59939e-06 3.31719e-05 -4.61786e-07 1.13748e-07)
(0.000168614 1.31207e-05 -1.58974e-06 3.43908e-05 -4.34421e-07 1.15316e-07)
(0.000172324 1.35682e-05 -1.57787e-06 3.55545e-05 -4.06636e-07 1.17043e-07)
(0.000175788 1.39232e-05 -1.56491e-06 3.66615e-05 -3.78434e-07 1.18953e-07)
(0.000179032 1.4184e-05 -1.55204e-06 3.77106e-05 -3.49815e-07 1.21072e-07)
(0.000182083 1.43531e-05 -1.54047e-06 3.8701e-05 -3.21052e-07 1.23434e-07)
(0.000184971 1.44369e-05 -1.53142e-06 3.96322e-05 -2.92674e-07 1.26077e-07)
(0.000187724 1.44421e-05 -1.52614e-06 4.05033e-05 -2.65243e-07 1.2904e-07)
(0.000190366 1.43779e-05 -1.52521e-06 4.1317e-05 -2.39275e-07 1.3231e-07)
(0.000192914 1.42555e-05 -1.52837e-06 4.20785e-05 -2.15247e-07 1.3581e-07)
(0.000195383 1.4087e-05 -1.53529e-06 4.27942e-05 -1.93635e-07 1.39459e-07)
(0.000197792 1.3882e-05 -1.54563e-06 4.347e-05 -1.74698e-07 1.43205e-07)
(0.000200156 1.36453e-05 -1.55899e-06 4.41119e-05 -1.58291e-07 1.47049e-07)
(0.000202497 1.33816e-05 -1.57492e-06 4.47262e-05 -1.44219e-07 1.50999e-07)
(0.000204826 1.30952e-05 -1.59294e-06 4.5319e-05 -1.32262e-07 1.55047e-07)
(0.00020714 1.27885e-05 -1.61239e-06 4.5896e-05 -1.22126e-07 1.59132e-07)
(0.000209432 1.24638e-05 -1.63252e-06 4.64626e-05 -1.13505e-07 1.63181e-07)
(0.000211697 1.21232e-05 -1.65281e-06 4.7024e-05 -1.06088e-07 1.67142e-07)
(0.000213951 1.17685e-05 -1.67392e-06 4.75814e-05 -9.96525e-08 1.71102e-07)
(0.00021622 1.14009e-05 -1.69707e-06 4.81342e-05 -9.40023e-08 1.75211e-07)
(0.000218527 1.10219e-05 -1.72343e-06 4.8682e-05 -8.8952e-08 1.79613e-07)
(0.000220878 1.06335e-05 -1.75303e-06 4.92266e-05 -8.46033e-08 1.84325e-07)
(0.00022326 1.02377e-05 -1.78483e-06 4.97717e-05 -8.13239e-08 1.89238e-07)
(0.000225658 9.83665e-06 -1.81768e-06 5.03212e-05 -7.95008e-08 1.94234e-07)
(0.000228069 9.43242e-06 -1.85084e-06 5.08778e-05 -7.91892e-08 1.99222e-07)
(0.00023051 9.0264e-06 -1.88438e-06 5.14418e-05 -7.97169e-08 2.04163e-07)
(0.000232999 8.62007e-06 -1.91851e-06 5.20128e-05 -8.02954e-08 2.09025e-07)
(0.000235556 8.21448e-06 -1.95338e-06 5.25906e-05 -8.02321e-08 2.13796e-07)
(0.00023818 7.80903e-06 -1.98884e-06 5.31734e-05 -7.95489e-08 2.18583e-07)
(0.000240866 7.4023e-06 -2.02467e-06 5.37591e-05 -7.85437e-08 2.23543e-07)
(0.000243606 6.99291e-06 -2.06061e-06 5.43457e-05 -7.75271e-08 2.28831e-07)
(0.000246399 6.58056e-06 -2.09651e-06 5.49335e-05 -7.68648e-08 2.34434e-07)
(0.00024925 6.16594e-06 -2.13237e-06 5.55264e-05 -7.69799e-08 2.40167e-07)
(0.000252164 5.7499e-06 -2.16819e-06 5.61282e-05 -7.83119e-08 2.4583e-07)
(0.000255143 5.3325e-06 -2.20393e-06 5.67417e-05 -8.10383e-08 2.5128e-07)
(0.000258188 4.91114e-06 -2.23955e-06 5.73666e-05 -8.45221e-08 2.5657e-07)
(0.000261299 4.48265e-06 -2.27496e-06 5.80022e-05 -8.79526e-08 2.61788e-07)
(0.000264478 4.04432e-06 -2.31019e-06 5.86474e-05 -9.05681e-08 2.67024e-07)
(0.000267745 3.59766e-06 -2.3462e-06 5.92999e-05 -9.23789e-08 2.72322e-07)
(0.000271128 3.14698e-06 -2.38456e-06 5.99566e-05 -9.38667e-08 2.77701e-07)
(0.000274661 2.6967e-06 -2.42686e-06 6.06144e-05 -9.55328e-08 2.83179e-07)
(0.000278346 2.25246e-06 -2.47359e-06 6.12718e-05 -9.76422e-08 2.88742e-07)
(0.000282141 1.82163e-06 -2.52326e-06 6.19304e-05 -1.00035e-07 2.94315e-07)
(0.000285994 1.41204e-06 -2.57409e-06 6.25923e-05 -1.02501e-07 2.99815e-07)
(0.000289863 1.03044e-06 -2.62449e-06 6.3259e-05 -1.04853e-07 3.05177e-07)
(0.00029375 6.76294e-07 -2.67399e-06 6.39297e-05 -1.07044e-07 3.10441e-07)
(0.000297676 3.46667e-07 -2.72253e-06 6.46024e-05 -1.0908e-07 3.15681e-07)
(0.000301659 3.83459e-08 -2.77002e-06 6.52751e-05 -1.10963e-07 3.20976e-07)
(0.000305686 -2.52492e-07 -2.81636e-06 6.59469e-05 -1.12647e-07 3.26334e-07)
(0.000309711 -5.30255e-07 -2.86138e-06 6.66178e-05 -1.14036e-07 3.31691e-07)
(0.000313683 -7.99593e-07 -2.90489e-06 6.72879e-05 -1.15029e-07 3.36977e-07)
(0.000317567 -1.06268e-06 -2.94707e-06 6.79567e-05 -1.15566e-07 3.42143e-07)
(0.000321367 -1.31396e-06 -2.9891e-06 6.86219e-05 -1.15726e-07 3.47197e-07)
(0.000325097 -1.54633e-06 -3.03241e-06 6.92813e-05 -1.15616e-07 3.52158e-07)
(0.000328768 -1.75307e-06 -3.07828e-06 6.9932e-05 -1.15311e-07 3.57046e-07)
(0.000332363 -1.9339e-06 -3.12639e-06 7.05717e-05 -1.14577e-07 3.61881e-07)
(0.000335848 -2.09213e-06 -3.17553e-06 7.11982e-05 -1.12994e-07 3.66681e-07)
(0.000339189 -2.23115e-06 -3.22442e-06 7.1809e-05 -1.1014e-07 3.71462e-07)
(0.00034236 -2.35282e-06 -3.27204e-06 7.24008e-05 -1.06082e-07 3.7622e-07)
(0.000345355 -2.45667e-06 -3.31773e-06 7.29694e-05 -1.01597e-07 3.80913e-07)
(0.000348165 -2.54205e-06 -3.36086e-06 7.35102e-05 -9.75399e-08 3.85498e-07)
(0.000350791 -2.6075e-06 -3.4014e-06 7.4021e-05 -9.46046e-08 3.89944e-07)
(0.000353262 -2.64871e-06 -3.44161e-06 7.45085e-05 -9.28052e-08 3.94287e-07)
(0.000355615 -2.66056e-06 -3.48439e-06 7.49818e-05 -9.19981e-08 3.98578e-07)
(0.000357884 -2.63898e-06 -3.53214e-06 7.54498e-05 -9.206e-08 4.02863e-07)
(0.000360048 -2.59109e-06 -3.58202e-06 7.59175e-05 -9.31115e-08 4.07135e-07)
(0.000362053 -2.53054e-06 -3.62809e-06 7.63879e-05 -9.54154e-08 4.11354e-07)
(0.000363848 -2.47137e-06 -3.6644e-06 7.6864e-05 -9.92208e-08 4.1548e-07)
(0.000365446 -2.42282e-06 -3.69059e-06 7.73485e-05 -1.04049e-07 4.19457e-07)
(0.000366944 -2.38828e-06 -3.71317e-06 7.78438e-05 -1.08537e-07 4.23219e-07)
(0.000368444 -2.37086e-06 -3.73924e-06 7.83523e-05 -1.1123e-07 4.26696e-07)
(0.00037001 -2.37062e-06 -3.77258e-06 7.88741e-05 -1.114e-07 4.29883e-07)
(0.000371607 -2.38029e-06 -3.80881e-06 7.94041e-05 -1.10096e-07 4.32928e-07)
(0.000373185 -2.39129e-06 -3.84225e-06 7.99364e-05 -1.08659e-07 4.36012e-07)
(0.000374703 -2.39572e-06 -3.86885e-06 8.04645e-05 -1.08035e-07 4.39259e-07)
(0.00037618 -2.38965e-06 -3.89268e-06 8.0981e-05 -1.07261e-07 4.42555e-07)
(0.000377653 -2.3702e-06 -3.92023e-06 8.14784e-05 -1.04803e-07 4.4571e-07)
(0.000379148 -2.33303e-06 -3.95705e-06 8.19495e-05 -9.94e-08 4.48565e-07)
(0.0003806 -2.26329e-06 -3.99988e-06 8.23943e-05 -9.2274e-08 4.5125e-07)
(0.000381903 -2.14075e-06 -4.04117e-06 8.28158e-05 -8.58717e-08 4.54034e-07)
(0.000382955 -1.94772e-06 -4.07362e-06 8.32175e-05 -8.25027e-08 4.57163e-07)
(0.000383806 -1.70661e-06 -4.0967e-06 8.36019e-05 -8.16536e-08 4.60489e-07)
(0.000384605 -1.46882e-06 -4.1147e-06 8.39713e-05 -8.07899e-08 4.63576e-07)
(0.000385504 -1.28515e-06 -4.132e-06 8.43276e-05 -7.73546e-08 4.6599e-07)
(0.000386498 -1.1529e-06 -4.15002e-06 8.46656e-05 -7.07085e-08 4.67688e-07)
(0.000387433 -1.01925e-06 -4.16742e-06 8.49738e-05 -6.20039e-08 4.68989e-07)
(0.000388155 -8.30997e-07 -4.18278e-06 8.52404e-05 -5.24732e-08 4.70233e-07)
(0.000388662 -6.14231e-07 -4.19663e-06 8.54597e-05 -4.27513e-08 4.71577e-07)
(0.000389121 -4.8155e-07 -4.21154e-06 8.56333e-05 -3.28208e-08 4.72984e-07)
(0.000389706 -5.47362e-07 -4.23012e-06 8.5763e-05 -2.26392e-08 4.74403e-07)
(0.000390379 -7.65544e-07 -4.25018e-06 8.58496e-05 -1.23864e-08 4.75659e-07)
(0.000390859 -9.08211e-07 -4.2641e-06 8.5893e-05 -2.49312e-09 4.76443e-07)
(8.08453e-07 -1.05347e-10 -2.4558e-09 6.97612e-11 -2.77171e-10 2.79215e-09)
(4.79529e-06 -5.57357e-09 -1.36522e-08 6.91607e-09 -6.31262e-09 1.85885e-08)
(9.25943e-06 -2.44764e-08 -2.44764e-08 4.49216e-08 -3.0079e-08 4.49216e-08)
(1.34064e-05 -5.55311e-08 -3.42786e-08 1.49131e-07 -8.0531e-08 7.80733e-08)
(1.74136e-05 -9.36095e-08 -4.41531e-08 3.63155e-07 -1.61301e-07 1.14458e-07)
(2.1655e-05 -1.41457e-07 -5.53542e-08 7.29118e-07 -2.71669e-07 1.5132e-07)
(2.64767e-05 -2.07185e-07 -7.09252e-08 1.28633e-06 -4.07889e-07 1.86983e-07)
(3.21694e-05 -3.01263e-07 -9.73179e-08 2.06652e-06 -5.64286e-07 2.20673e-07)
(3.89683e-05 -4.33155e-07 -1.44727e-07 3.09065e-06 -7.33884e-07 2.52301e-07)
(4.7064e-05 -6.00547e-07 -2.26584e-07 4.36792e-06 -9.0997e-07 2.82351e-07)
(5.66147e-05 -7.90845e-07 -3.56879e-07 5.89922e-06 -1.0864e-06 3.11542e-07)
(6.77318e-05 -9.75986e-07 -5.47846e-07 7.67513e-06 -1.25843e-06 3.4069e-07)
(8.0479e-05 -1.1185e-06 -8.08158e-07 9.6814e-06 -1.42254e-06 3.7044e-07)
(9.48486e-05 -1.16857e-06 -1.14008e-06 1.18995e-05 -1.57732e-06 4.01097e-07)
(0.000110791 -1.07563e-06 -1.54129e-06 1.4312e-05 -1.72204e-06 4.3264e-07)
(0.000128168 -7.91635e-07 -2.00093e-06 1.69017e-05 -1.85659e-06 4.64411e-07)
(0.000146805 -2.73202e-07 -2.50568e-06 1.96514e-05 -1.98082e-06 4.95596e-07)
(0.000166476 5.05689e-07 -3.03881e-06 2.25467e-05 -2.09411e-06 5.25203e-07)
(0.000186932 1.56525e-06 -3.5825e-06 2.55732e-05 -2.19563e-06 5.52223e-07)
(0.000207909 2.90381e-06 -4.1202e-06 2.87162e-05 -2.28406e-06 5.76104e-07)
(0.000229132 4.5082e-06 -4.63594e-06 3.19616e-05 -2.35779e-06 5.96534e-07)
(0.000250343 6.35566e-06 -5.11695e-06 3.5293e-05 -2.41549e-06 6.1346e-07)
(0.00027134 8.40989e-06 -5.5566e-06 3.86937e-05 -2.45634e-06 6.27276e-07)
(0.000291906 1.06303e-05 -5.94871e-06 4.21442e-05 -2.47961e-06 6.38413e-07)
(0.000311886 1.29723e-05 -6.29059e-06 4.56268e-05 -2.48517e-06 6.47282e-07)
(0.000331135 1.53868e-05 -6.5809e-06 4.91213e-05 -2.47319e-06 6.54278e-07)
(0.000349535 1.78264e-05 -6.81975e-06 5.26085e-05 -2.44413e-06 6.59823e-07)
(0.00036703 2.0249e-05 -7.01098e-06 5.60691e-05 -2.39924e-06 6.64373e-07)
(0.00038359 2.26137e-05 -7.1594e-06 5.94851e-05 -2.33991e-06 6.6841e-07)
(0.000399186 2.48826e-05 -7.26967e-06 6.28385e-05 -2.26768e-06 6.72398e-07)
(0.000413833 2.70266e-05 -7.34642e-06 6.61171e-05 -2.18414e-06 6.7678e-07)
(0.000427534 2.90149e-05 -7.39433e-06 6.93061e-05 -2.091e-06 6.81995e-07)
(0.00044032 3.08241e-05 -7.41795e-06 7.23947e-05 -1.99009e-06 6.88269e-07)
(0.000452248 3.24378e-05 -7.42162e-06 7.53762e-05 -1.88336e-06 6.95597e-07)
(0.000463373 3.38392e-05 -7.4098e-06 7.82422e-05 -1.77281e-06 7.03965e-07)
(0.000473756 3.50179e-05 -7.38696e-06 8.09875e-05 -1.65957e-06 7.13411e-07)
(0.000483457 3.59686e-05 -7.35757e-06 8.36075e-05 -1.54406e-06 7.2402e-07)
(0.000492541 3.66869e-05 -7.32629e-06 8.60987e-05 -1.42663e-06 7.3589e-07)
(0.00050108 3.71771e-05 -7.29807e-06 8.84573e-05 -1.30837e-06 7.49211e-07)
(0.000509156 3.74519e-05 -7.27821e-06 9.06807e-05 -1.19096e-06 7.64267e-07)
(0.000516849 3.75249e-05 -7.27211e-06 9.27656e-05 -1.0762e-06 7.8134e-07)
(0.000524224 3.74157e-05 -7.28249e-06 9.47151e-05 -9.66075e-07 8.00396e-07)
(0.000531325 3.7151e-05 -7.30892e-06 9.65387e-05 -8.62849e-07 8.21012e-07)
(0.000538197 3.67585e-05 -7.35073e-06 9.82474e-05 -7.68809e-07 8.42739e-07)
(0.000544885 3.62611e-05 -7.40682e-06 9.98527e-05 -6.85299e-07 8.65235e-07)
(0.000551435 3.56722e-05 -7.47524e-06 0.000101368 -6.11901e-07 8.88364e-07)
(0.000557899 3.50044e-05 -7.55393e-06 0.000102808 -5.47977e-07 9.12015e-07)
(0.000564314 3.427e-05 -7.64082e-06 0.000104186 -4.92819e-07 9.36032e-07)
(0.00057068 3.34773e-05 -7.73413e-06 0.000105515 -4.4548e-07 9.60171e-07)
(0.000576985 3.26347e-05 -7.83199e-06 0.000106806 -4.04984e-07 9.84139e-07)
(0.000583226 3.175e-05 -7.93305e-06 0.000108071 -3.70315e-07 1.00775e-06)
(0.000589436 3.08286e-05 -8.03889e-06 0.000109316 -3.40692e-07 1.03144e-06)
(0.00059567 2.98744e-05 -8.15247e-06 0.000110544 -3.15382e-07 1.05591e-06)
(0.000601976 2.88916e-05 -8.27663e-06 0.000111759 -2.93674e-07 1.08186e-06)
(0.000608369 2.78829e-05 -8.41116e-06 0.000112965 -2.755e-07 1.10935e-06)
(0.000614824 2.68495e-05 -8.553e-06 0.000114168 -2.61389e-07 1.13786e-06)
(0.000621313 2.57928e-05 -8.69889e-06 0.000115373 -2.51905e-07 1.16682e-06)
(0.000627833 2.47157e-05 -8.84683e-06 0.000116583 -2.46881e-07 1.19577e-06)
(0.00063443 2.36244e-05 -8.99769e-06 0.000117799 -2.44554e-07 1.22452e-06)
(0.000641159 2.25264e-05 -9.1527e-06 0.00011902 -2.42901e-07 1.25289e-06)
(0.000648067 2.14279e-05 -9.31285e-06 0.000120246 -2.40169e-07 1.28082e-06)
(0.000655151 2.03323e-05 -9.47698e-06 0.000121476 -2.36586e-07 1.30885e-06)
(0.000662389 1.92413e-05 -9.64313e-06 0.00012271 -2.33152e-07 1.33777e-06)
(0.000669757 1.81567e-05 -9.80932e-06 0.000123948 -2.30894e-07 1.36835e-06)
(0.000677253 1.70779e-05 -9.97466e-06 0.000125193 -2.30745e-07 1.40053e-06)
(0.000684898 1.60014e-05 -1.01395e-05 0.00012645 -2.33532e-07 1.43339e-06)
(0.000692715 1.49238e-05 -1.03044e-05 0.000127724 -2.40104e-07 1.46589e-06)
(0.000700719 1.38413e-05 -1.04694e-05 0.000129019 -2.50701e-07 1.4973e-06)
(0.000708908 1.27499e-05 -1.06341e-05 0.000130334 -2.63689e-07 1.52786e-06)
(0.000717277 1.16448e-05 -1.07978e-05 0.000131671 -2.77028e-07 1.55799e-06)
(0.000725824 1.05225e-05 -1.09604e-05 0.000133026 -2.88776e-07 1.58809e-06)
(0.000734598 9.38543e-06 -1.11255e-05 0.000134397 -2.98683e-07 1.6184e-06)
(0.000743681 8.23997e-06 -1.12989e-05 0.000135776 -3.07521e-07 1.64903e-06)
(0.000753156 7.09286e-06 -1.1487e-05 0.000137157 -3.16104e-07 1.68012e-06)
(0.000763035 5.95587e-06 -1.16918e-05 0.000138537 -3.25043e-07 1.71163e-06)
(0.000773204 4.84872e-06 -1.19083e-05 0.000139918 -3.34589e-07 1.74324e-06)
(0.000783534 3.79274e-06 -1.21306e-05 0.000141303 -3.44959e-07 1.77458e-06)
(0.000793913 2.80656e-06 -1.23532e-05 0.000142694 -3.56314e-07 1.80536e-06)
(0.000804351 1.89063e-06 -1.25735e-05 0.000144093 -3.68468e-07 1.83565e-06)
(0.000814901 1.03941e-06 -1.279e-05 0.000145502 -3.81102e-07 1.86566e-06)
(0.000825614 2.46684e-07 -1.30011e-05 0.000146921 -3.93866e-07 1.89561e-06)
(0.000836458 -4.96345e-07 -1.32062e-05 0.00014835 -4.05863e-07 1.92553e-06)
(0.000847305 -1.20103e-06 -1.34058e-05 0.000149784 -4.15614e-07 1.95525e-06)
(0.000858025 -1.87939e-06 -1.36002e-05 0.00015122 -4.21571e-07 1.98461e-06)
(0.000868517 -2.53674e-06 -1.37909e-05 0.000152652 -4.22994e-07 2.01348e-06)
(0.000878782 -3.15735e-06 -1.39817e-05 0.000154073 -4.21668e-07 2.04188e-06)
(0.000888842 -3.72133e-06 -1.41772e-05 0.000155477 -4.19902e-07 2.06986e-06)
(0.000898711 -4.21027e-06 -1.43812e-05 0.000156854 -4.19751e-07 2.09747e-06)
(0.00090834 -4.62784e-06 -1.45915e-05 0.000158203 -4.20187e-07 2.12473e-06)
(0.000917642 -4.9902e-06 -1.48024e-05 0.000159524 -4.18418e-07 2.15164e-06)
(0.000926526 -5.31382e-06 -1.50079e-05 0.000160816 -4.11596e-07 2.17819e-06)
(0.00093494 -5.60622e-06 -1.5205e-05 0.000162074 -3.9929e-07 2.20436e-06)
(0.000942887 -5.86159e-06 -1.53952e-05 0.000163288 -3.846e-07 2.23011e-06)
(0.000950373 -6.07285e-06 -1.55804e-05 0.000164446 -3.71e-07 2.2554e-06)
(0.000957412 -6.23263e-06 -1.57629e-05 0.000165541 -3.61375e-07 2.28022e-06)
(0.000964044 -6.33291e-06 -1.59464e-05 0.000166586 -3.56159e-07 2.30471e-06)
(0.000970313 -6.36533e-06 -1.61351e-05 0.000167601 -3.5522e-07 2.32902e-06)
(0.000976258 -6.32389e-06 -1.63321e-05 0.000168604 -3.58418e-07 2.35329e-06)
(0.000981857 -6.22737e-06 -1.65292e-05 0.000169608 -3.65575e-07 2.37733e-06)
(0.000987048 -6.10906e-06 -1.67113e-05 0.000170622 -3.76489e-07 2.40072e-06)
(0.000991773 -6.00303e-06 -1.68636e-05 0.000171657 -3.9091e-07 2.42306e-06)
(0.000996076 -5.92741e-06 -1.69861e-05 0.000172718 -4.07257e-07 2.44416e-06)
(0.00100013 -5.8808e-06 -1.70971e-05 0.000173805 -4.22345e-07 2.46411e-06)
(0.00100412 -5.86059e-06 -1.72167e-05 0.000174918 -4.32796e-07 2.48304e-06)
(0.00100817 -5.86241e-06 -1.73557e-05 0.000176055 -4.36719e-07 2.50114e-06)
(0.00101227 -5.87776e-06 -1.75022e-05 0.000177207 -4.35873e-07 2.51875e-06)
(0.00101638 -5.89733e-06 -1.76407e-05 0.000178367 -4.32605e-07 2.53626e-06)
(0.00102045 -5.91064e-06 -1.77606e-05 0.000179522 -4.28501e-07 2.55395e-06)
(0.0010245 -5.90325e-06 -1.78747e-05 0.000180655 -4.21476e-07 2.57153e-06)
(0.00102852 -5.8592e-06 -1.80028e-05 0.000181741 -4.08349e-07 2.58855e-06)
(0.0010325 -5.76032e-06 -1.81617e-05 0.000182762 -3.86701e-07 2.60463e-06)
(0.00103627 -5.57459e-06 -1.83393e-05 0.000183719 -3.60836e-07 2.62024e-06)
(0.00103962 -5.26274e-06 -1.85092e-05 0.000184628 -3.38382e-07 2.63621e-06)
(0.00104232 -4.79098e-06 -1.86459e-05 0.000185503 -3.26509e-07 2.6533e-06)
(0.00104451 -4.21036e-06 -1.87476e-05 0.00018635 -3.23198e-07 2.6708e-06)
(0.00104655 -3.63332e-06 -1.88291e-05 0.000187166 -3.19845e-07 2.68692e-06)
(0.00104881 -3.17097e-06 -1.89056e-05 0.000187951 -3.07743e-07 2.69988e-06)
(0.0010513 -2.81877e-06 -1.89826e-05 0.000188693 -2.84009e-07 2.70955e-06)
(0.00105366 -2.46375e-06 -1.90569e-05 0.000189372 -2.51199e-07 2.71734e-06)
(0.00105553 -1.99249e-06 -1.91252e-05 0.000189967 -2.12178e-07 2.72472e-06)
(0.00105689 -1.47016e-06 -1.91884e-05 0.000190464 -1.70422e-07 2.73242e-06)
(0.0010581 -1.1568e-06 -1.92522e-05 0.000190863 -1.30064e-07 2.74032e-06)
(0.00105949 -1.31616e-06 -1.93224e-05 0.000191159 -9.52325e-08 2.74824e-06)
(0.00106101 -1.83416e-06 -1.93915e-05 0.000191354 -6.55179e-08 2.75528e-06)
(0.00106207 -2.16902e-06 -1.94374e-05 0.00019145 -3.53714e-08 2.75967e-06)
(1.01653e-06 -1.6612e-10 -4.8928e-09 1.44183e-10 -7.21513e-10 8.32715e-09)
(6.49571e-06 -7.49076e-09 -2.88991e-08 1.20368e-08 -1.81597e-08 6.16236e-08)
(1.34064e-05 -3.42786e-08 -5.55311e-08 7.80733e-08 -8.0531e-08 1.49131e-07)
(2.05592e-05 -8.12709e-08 -8.12709e-08 2.57877e-07 -2.06249e-07 2.57877e-07)
(2.80342e-05 -1.43814e-07 -1.07018e-07 6.20212e-07 -4.02131e-07 3.76611e-07)
(3.6288e-05 -2.27039e-07 -1.36188e-07 1.23126e-06 -6.65704e-07 4.96742e-07)
(4.58193e-05 -3.43372e-07 -1.78279e-07 2.15082e-06 -9.87898e-07 6.12851e-07)
(5.70904e-05 -5.06733e-07 -2.51522e-07 3.4264e-06 -1.35573e-06 7.22343e-07)
(7.05019e-05 -7.26831e-07 -3.82912e-07 5.08914e-06 -1.75371e-06 8.24849e-07)