/*--------------------------------*- C++ -*----------------------------------*\
  =========                 |
  \\      /  F ield         | OpenFOAM: The Open Source CFD Toolbox
   \\    /   O peration     | Website:  https://openfoam.org
    \\  /    A nd           | Version:  6
     \\/     M anipulation  |
\*---------------------------------------------------------------------------*/
FoamFile
{
    version     2.0;
    format      ascii;
    class       volSymmTensorField;
    location    "98.28";
    object      turbulenceProperties:R;
}
// * * * * * * * * * * * * * * * * * * * * * * * * * * * * * * * * * * * * * //

dimensions      [0 2 -2 0 0 0 0];

internalField   nonuniform List<symmTensor> 
15625
(
(1.2530499110190732e-07 -2.274805733542319e-11 -2.274805733542317e-11 8.447678976395566e-12 -4.9497289974228745e-11 8.447678976395159e-12)
(5.145348844944525e-07 -6.912926073695933e-10 -9.859516983269281e-11 5.035218275533549e-10 -6.50282085830729e-11 1.6885995338896586e-11)
(8.084526676377025e-07 -2.4557975205215778e-09 -1.053467726820425e-10 2.7921541464246493e-09 -2.7717110710460297e-10 6.976116290422968e-11)
(1.0165264950679585e-06 -4.892804894786296e-09 -1.6611958180630927e-10 8.327150488822213e-09 -7.215129000808218e-10 1.4418325773739127e-10)
(1.1850135807558242e-06 -7.183194348442087e-09 -2.518924064797321e-10 2.0545976548640395e-08 -1.5610177592251183e-09 2.2407000749261957e-10)
(1.3496822826628713e-06 -9.463868298985518e-09 -3.7137062986894274e-10 4.1717772184095514e-08 -2.7282761748788247e-09 3.0369463073317946e-10)
(1.5337403601387011e-06 -1.217852572653276e-08 -5.195722116202057e-10 7.45294395930176e-08 -4.200819266856719e-09 3.8316790209957846e-10)
(1.7526300094730699e-06 -1.606687283476714e-08 -7.220435212126866e-10 1.212640317613421e-07 -5.936646895530306e-09 4.598767694619418e-10)
(2.0168646912044255e-06 -2.206208408082733e-08 -1.066076990060047e-09 1.8313540182032547e-07 -7.81924489051314e-09 5.322964254172334e-10)
(2.3340709704101666e-06 -3.0383153341591414e-08 -1.6751547554717772e-09 2.608816920102941e-07 -9.775971284280663e-09 6.023768134876293e-10)
(2.710236950832166e-06 -4.068329084921761e-08 -2.6831519716446283e-09 3.5473218514780686e-07 -1.1746105609928919e-08 6.726671895831749e-10)
(3.149620373849569e-06 -5.183592727642127e-08 -4.216649952937783e-09 4.6401621101953365e-07 -1.3655771525380487e-08 7.439311255472607e-10)
(3.654599872630857e-06 -6.20966986652498e-08 -6.371793264435424e-09 5.877328996681992e-07 -1.54515232368373e-08 8.170389887230923e-10)
(4.224791464190995e-06 -6.882017158000085e-08 -9.186800982722539e-09 7.246424853325674e-07 -1.71267659101229e-08 8.936718765828438e-10)
(4.858193418484437e-06 -6.925778375988012e-08 -1.2650030371181686e-08 8.735729633777501e-07 -1.8683071821986734e-08 9.744413803039607e-10)
(5.5493342775180615e-06 -6.071606783422989e-08 -1.6655039605673094e-08 1.0333987993263664e-06 -2.0125901550834396e-08 1.0573976785494829e-09)
(6.291342126561959e-06 -4.073141358163261e-08 -2.1070260901930542e-08 1.2030131045868963e-06 -2.145922372870886e-08 1.1400768168784739e-09)
(7.075092041579981e-06 -7.748741868681188e-09 -2.5730567364606224e-08 1.381573921636039e-06 -2.268073208324691e-08 1.219554102181285e-09)
(7.89051810731895e-06 3.9473623313407645e-08 -3.045987972782713e-08 1.5682221977102738e-06 -2.378451890087089e-08 1.2928652393561625e-09)
(8.726959489247126e-06 1.00898816786703e-07 -3.509162232009636e-08 1.761976788531517e-06 -2.47483972006507e-08 1.3583094833284466e-09)
(9.573420011209443e-06 1.7581577243418682e-07 -3.946299274202008e-08 1.961805723443714e-06 -2.5541484151688393e-08 1.4148532624369324e-09)
(1.0419494201097911e-05 2.6301468546416196e-07 -4.345242989910256e-08 2.1664677058717904e-06 -2.61405258871823e-08 1.462435566359013e-09)
(1.1256840629787223e-05 3.605725931514496e-07 -4.701371477171746e-08 2.374605586284697e-06 -2.6536257772696233e-08 1.5026595364633306e-09)
(1.2076735807133364e-05 4.6635598989187483e-07 -5.010615886352841e-08 2.5846832729317404e-06 -2.672174812144338e-08 1.5372130308470377e-09)
(1.2872859355389164e-05 5.780885769620414e-07 -5.270942611292913e-08 2.79539853049452e-06 -2.6702982245082943e-08 1.5671111851888048e-09)
(1.3639341448207046e-05 6.932986734037053e-07 -5.4810656455146116e-08 3.0053766302967586e-06 -2.6492429090529446e-08 1.5930181740117855e-09)
(1.43714171134641e-05 8.095852831129174e-07 -5.641256422026018e-08 3.213360709621505e-06 -2.6103961564218997e-08 1.6156687294167692e-09)
(1.5066928906904326e-05 9.24778966806008e-07 -5.756091440097644e-08 3.4182645324863558e-06 -2.5554647977139616e-08 1.6359301602548825e-09)
(1.572454262390579e-05 1.0367603412847515e-06 -5.831146263141859e-08 3.619115656274977e-06 -2.4862364920933705e-08 1.6547323439020448e-09)
(1.6343236242168286e-05 1.143599728004513e-06 -5.8716104353427225e-08 3.814912755581795e-06 -2.404400428241212e-08 1.6731250838328454e-09)
(1.6923604366862955e-05 1.2438838985841572e-06 -5.882103807916449e-08 4.0049703558447814e-06 -2.3113403846635102e-08 1.6923587307641026e-09)
(1.746592722076731e-05 1.3361274134919144e-06 -5.867308999959377e-08 4.188457670853884e-06 -2.2085574719866944e-08 1.7136904867038602e-09)
(1.797153120436801e-05 1.4192001540526988e-06 -5.831749292744484e-08 4.364871577585795e-06 -2.0981788086493142e-08 1.73763205940263e-09)
(1.844277513788466e-05 1.4923340016783468e-06 -5.7797361731912624e-08 4.534041090488873e-06 -1.9829804116994745e-08 1.7639078442300443e-09)
(1.8881921118538148e-05 1.5547351656904948e-06 -5.7157336409066854e-08 4.695726814796676e-06 -1.8658143021900834e-08 1.7922095382460065e-09)
(1.9291555894416252e-05 1.6059386463904093e-06 -5.6443168156201424e-08 4.849784847848129e-06 -1.747781898570859e-08 1.8226883531452922e-09)
(1.9674320430800378e-05 1.6457414889519366e-06 -5.5702135536763374e-08 4.996065666737647e-06 -1.6284658158996723e-08 1.8558968826990466e-09)
(2.0033084859854437e-05 1.6739912339740653e-06 -5.498282717890875e-08 5.1344697537726325e-06 -1.5074323779086453e-08 1.892424766900794e-09)
(2.0370828022075598e-05 1.6910888382894e-06 -5.4333969607665806e-08 5.26495788471657e-06 -1.3859749019485823e-08 1.9327999394408316e-09)
(2.0690744628630976e-05 1.6979717879240068e-06 -5.3804356496394e-08 5.387588074371507e-06 -1.2670002503344562e-08 1.9775035447697177e-09)
(2.099602694542936e-05 1.6956356529987716e-06 -5.344345467069506e-08 5.502402420158642e-06 -1.153578453026178e-08 2.0269892037018826e-09)
(2.1289303460775804e-05 1.685282970704219e-06 -5.327033477384867e-08 5.6098671825882526e-06 -1.0479698657219632e-08 2.0809281413844466e-09)
(2.157231474103792e-05 1.6683568954607256e-06 -5.3267783666203144e-08 5.710879837966185e-06 -9.515232036018532e-09 2.138025592189174e-09)
(2.1846938866291854e-05 1.646351226858542e-06 -5.341592220542077e-08 5.806438525574289e-06 -8.655221153628999e-09 2.1969229234205143e-09)
(2.2115067414859195e-05 1.620448179696923e-06 -5.369764907437576e-08 5.897442738527228e-06 -7.906231654711301e-09 2.256899186348327e-09)
(2.2378680504340163e-05 1.5912422992014068e-06 -5.410111853549083e-08 5.984635522212902e-06 -7.263025523564274e-09 2.318408732750954e-09)
(2.2639910004880862e-05 1.5592792428679408e-06 -5.4614708812024575e-08 6.068795277612339e-06 -6.718741888691355e-09 2.3820574309669695e-09)
(2.2900203464525665e-05 1.5250359986381666e-06 -5.522009852304141e-08 6.150697987765623e-06 -6.264326061458101e-09 2.447973478369865e-09)
(2.3159109325568868e-05 1.488689600417857e-06 -5.587986847227072e-08 6.231174770373652e-06 -5.883746776916872e-09 2.514855647011307e-09)
(2.3415542336800433e-05 1.4503970793238495e-06 -5.655118061090658e-08 6.31101374443536e-06 -5.559524868678423e-09 2.5810212971135262e-09)
(2.3668979558284006e-05 1.4102893859898622e-06 -5.720127168325356e-08 6.390973675760799e-06 -5.274469113678906e-09 2.6452374637911033e-09)
(2.3921201781593686e-05 1.3685236542790209e-06 -5.786793736426404e-08 6.4709665069400005e-06 -5.018977343158215e-09 2.7091437689420096e-09)
(2.4175201092019597e-05 1.3252379713909866e-06 -5.8619739828408596e-08 6.550616128334396e-06 -4.786167887014268e-09 2.7756664493704716e-09)
(2.4433840906609466e-05 1.2806012668211927e-06 -5.952386369122984e-08 6.629532930214291e-06 -4.569886848314416e-09 2.847664023525131e-09)
(2.469775933481601e-05 1.2349304403381081e-06 -6.058484296955322e-08 6.7079588192878936e-06 -4.379740105704723e-09 2.9254338609440097e-09)
(2.4965448548055055e-05 1.1886965402695582e-06 -6.17492079648839e-08 6.786687730897452e-06 -4.239971416722155e-09 3.006888843875877e-09)
(2.523528098668972e-05 1.1423905888271334e-06 -6.29597153329631e-08 6.86655828575766e-06 -4.17599853838342e-09 3.089789728854222e-09)
(2.550669309007732e-05 1.0963513104607156e-06 -6.417553493013182e-08 6.9481489368925865e-06 -4.193317330147696e-09 3.172381510045244e-09)
(2.578151119182453e-05 1.0505647264308131e-06 -6.539356402081457e-08 7.03145698603555e-06 -4.25360526696665e-09 3.2540493356046277e-09)
(2.6061851991044182e-05 1.0049828118634693e-06 -6.661523166417675e-08 7.116379243017608e-06 -4.311609601736523e-09 3.3342875823945047e-09)
(2.6349709595728786e-05 9.595058964249044e-07 -6.784252986116943e-08 7.2027926936165565e-06 -4.3272819757108755e-09 3.4129553883866075e-09)
(2.664520141084977e-05 9.138572697080111e-07 -6.907721616494267e-08 7.290238625108386e-06 -4.2997144439051906e-09 3.491981459004701e-09)
(2.6947840080898266e-05 8.676672613768045e-07 -7.03215000727953e-08 7.378154319549238e-06 -4.243091103222533e-09 3.5741664504152397e-09)
(2.725709493489226e-05 8.205733231528174e-07 -7.157727569066345e-08 7.465972108280771e-06 -4.1723756789990554e-09 3.6622696748770527e-09)
(2.757274196032823e-05 7.725361538643558e-07 -7.284091798665844e-08 7.55372006112225e-06 -4.109250558738144e-09 3.756081450395824e-09)
(2.7895046140444448e-05 7.23835132098416e-07 -7.410359399274557e-08 7.642104064530275e-06 -4.082468794095928e-09 3.852287367689893e-09)
(2.8224215578524344e-05 6.747869709526599e-07 -7.535558993394308e-08 7.731860120608083e-06 -4.122052960121312e-09 3.947294074332888e-09)
(2.8560430835589008e-05 6.25544886827956e-07 -7.659079202839626e-08 7.823521796830685e-06 -4.241339317929187e-09 4.038569296674622e-09)
(2.890398992396063e-05 5.757181766298385e-07 -7.781532526431318e-08 7.917021601179779e-06 -4.401589805833394e-09 4.127071999939449e-09)
(2.9255205164400887e-05 5.248037855432321e-07 -7.903775901162453e-08 8.012170743251075e-06 -4.553036129021036e-09 4.21445018591258e-09)
(2.9614467540648193e-05 4.72366255164533e-07 -8.02694684769839e-08 8.108736062966494e-06 -4.649261489787119e-09 4.302308779379616e-09)
(2.9983895617071355e-05 4.1868321845784197e-07 -8.155156825880938e-08 8.206358392265356e-06 -4.694789564143329e-09 4.3915238430020075e-09)
(3.0366594184919983e-05 3.644859276178581e-07 -8.29435604343167e-08 8.30457037844008e-06 -4.725293012080979e-09 4.482514052500753e-09)
(3.0765792023095066e-05 3.105298567244564e-07 -8.450672611714781e-08 8.402903463820851e-06 -4.777796434810503e-09 4.575707289055569e-09)
(3.1181738741645505e-05 2.5761503187080183e-07 -8.625507668465848e-08 8.50116717552224e-06 -4.868829953750809e-09 4.670753657781134e-09)
(3.160965296796835e-05 2.0656497712641193e-07 -8.81193588333094e-08 8.59973521509571e-06 -4.978134426830824e-09 4.7659923014218245e-09)
(3.20440318852053e-05 1.5823808912706068e-07 -9.001945151090047e-08 8.699035638168861e-06 -5.081072354977055e-09 4.859564316659295e-09)
(3.2480111345712456e-05 1.1335286797890918e-07 -9.188350428003841e-08 8.799372828713899e-06 -5.156193813317088e-09 4.950015071576501e-09)
(3.291822306927388e-05 7.170952950767523e-08 -9.369882946864287e-08 8.900317352288856e-06 -5.203690454096693e-09 5.038454336074604e-09)
(3.336028277081512e-05 3.279856548134945e-08 -9.547258739669779e-08 9.001111856771854e-06 -5.231466044775919e-09 5.126883797187699e-09)
(3.380828265146167e-05 -3.91995021296207e-09 -9.721244814102344e-08 9.101033218496138e-06 -5.247692061346963e-09 5.217327458607632e-09)
(3.426079417773329e-05 -3.891456222637556e-08 -9.891607067911998e-08 9.199895959089168e-06 -5.259951852604102e-09 5.310007738213092e-09)
(3.47126723143646e-05 -7.257078030788483e-08 -1.0057016762923054e-07 9.298060376918205e-06 -5.275201453693984e-09 5.403222321403436e-09)
(3.515854559794948e-05 -1.0529167114878486e-07 -1.0216096307224144e-07 9.395948251604161e-06 -5.300590982757691e-09 5.495147439292095e-09)
(3.55944893739235e-05 -1.3727678282775405e-07 -1.0369069123045756e-07 9.493840819522457e-06 -5.338063682434391e-09 5.584455384054166e-09)
(3.602115742174775e-05 -1.6808552342230924e-07 -1.0520991815579292e-07 9.591551132419936e-06 -5.373553712378646e-09 5.671399817314444e-09)
(3.644025787954493e-05 -1.9715596550105432e-07 -1.0678037812641566e-07 9.68883599741321e-06 -5.389581011097801e-09 5.7565757211867915e-09)
(3.6853020877367205e-05 -2.2392015921600164e-07 -1.0845890881416005e-07 9.785373821150962e-06 -5.368958005010745e-09 5.840556250875976e-09)
(3.725760237776105e-05 -2.4804490909338984e-07 -1.1024590050305996e-07 9.880621362308013e-06 -5.3022917120458495e-09 5.923927573256666e-09)
(3.765034739240753e-05 -2.6932095598302155e-07 -1.121096863949167e-07 9.973892577854319e-06 -5.184435805920319e-09 6.007284512125633e-09)
(3.802731028799258e-05 -2.8752908345126537e-07 -1.1401600969843274e-07 1.0064438449179267e-05 -5.010534637902286e-09 6.0911875153318935e-09)
(3.838568839940164e-05 -3.026662226320146e-07 -1.1591461972874115e-07 1.0151653290131715e-05 -4.792044339532146e-09 6.175439301969899e-09)
(3.8724183181700464e-05 -3.150318610840821e-07 -1.1773179756637533e-07 1.0235101821889793e-05 -4.564046806308757e-09 6.258701278359024e-09)
(3.904153832301732e-05 -3.249576274275521e-07 -1.1938948679804064e-07 1.0314339756927582e-05 -4.364594532123277e-09 6.339494938441857e-09)
(3.9337557222766206e-05 -3.3258269721066966e-07 -1.2085649767187242e-07 1.0389241770875393e-05 -4.223130482064359e-09 6.416815076552356e-09)
(3.9616030739540316e-05 -3.3730982219100623e-07 -1.2227997906417107e-07 1.0460890372561495e-05 -4.134211888532621e-09 6.491524634091233e-09)
(3.98817209948197e-05 -3.383533331333167e-07 -1.2385236463679237e-07 1.0530663020122065e-05 -4.084093672692862e-09 6.564929396643298e-09)
(4.01388704040477e-05 -3.350558307131205e-07 -1.257398646609842e-07 1.0599903948600664e-05 -4.061012660695124e-09 6.638300819343492e-09)
(4.0384687094716936e-05 -3.2819960892081237e-07 -1.2779794228208542e-07 1.0669072518604883e-05 -4.076571646608554e-09 6.712030834910255e-09)
(4.0612330074781225e-05 -3.1940765582962e-07 -1.2970122480685687e-07 1.073813698951749e-05 -4.15599680906399e-09 6.786022982227491e-09)
(4.081493872240886e-05 -3.103550928656399e-07 -1.311211273116844e-07 1.080706534136719e-05 -4.323933553682964e-09 6.860127854932314e-09)
(4.099406087815649e-05 -3.0235945855381e-07 -1.3202816472257663e-07 1.0876248253032721e-05 -4.557141610107633e-09 6.93305846402144e-09)
(4.116148327781827e-05 -2.962936837217334e-07 -1.3275714732063543e-07 1.0946595509206437e-05 -4.7742766516153745e-09 7.002158520993434e-09)
(4.132992115367325e-05 -2.9303038610616425e-07 -1.3367428209775057e-07 1.1019058876994359e-05 -4.888115204045673e-09 7.06460088389509e-09)
(4.1507052517636894e-05 -2.927972928085452e-07 -1.3497384482174366e-07 1.1094018447197968e-05 -4.857929080433238e-09 7.119588836870741e-09)
(4.168790018770063e-05 -2.94265846485598e-07 -1.3642681923031235e-07 1.1170380986653843e-05 -4.756488069156251e-09 7.171170879068894e-09)
(4.186558854884754e-05 -2.9584046480654453e-07 -1.3773621590631e-07 1.1246848207060609e-05 -4.675302193143433e-09 7.224255278279879e-09)
(4.203483636896138e-05 -2.9612389756897907e-07 -1.3868993445706123e-07 1.1322174460716414e-05 -4.6791896285394195e-09 7.2823714796141855e-09)
(4.219861242959859e-05 -2.9479180181329354e-07 -1.394913204033682e-07 1.1395647574748289e-05 -4.703225135193585e-09 7.34243514435242e-09)
(4.2362310260998864e-05 -2.9181878770966397e-07 -1.404672977066723e-07 1.146668893305993e-05 -4.643854774824027e-09 7.399396455280906e-09)
(4.253005434388984e-05 -2.8695885935543e-07 -1.4189890025464905e-07 1.1534752725117507e-05 -4.413628289303718e-09 7.448988600367447e-09)
(4.269452927571438e-05 -2.7825572711125583e-07 -1.4363227559684508e-07 1.1599549858183123e-05 -4.074587057135714e-09 7.49410799523776e-09)
(4.284280460427529e-05 -2.6288877187908937e-07 -1.4530055572731023e-07 1.1660934571814098e-05 -3.7622542217001875e-09 7.541191157514787e-09)
(4.296282650941892e-05 -2.383799024050835e-07 -1.4655013837074838e-07 1.1718783689206188e-05 -3.6048273451229103e-09 7.59620047288281e-09)
(4.3059622571369e-05 -2.077369972486426e-07 -1.473623873106914e-07 1.1773465535401133e-05 -3.577012479569021e-09 7.656367578553184e-09)
(4.315042251614179e-05 -1.7793208705292665e-07 -1.4795730708777306e-07 1.1825675144687792e-05 -3.543623362143278e-09 7.712628401493031e-09)
(4.325235592229858e-05 -1.5584681413904625e-07 -1.485586927353702e-07 1.1876081978743863e-05 -3.3688644636776457e-09 7.755937522836086e-09)
(4.336472224634984e-05 -1.4098258738439247e-07 -1.4923002098049822e-07 1.192398538939841e-05 -3.031123664026271e-09 7.78526224001658e-09)
(4.347018300176792e-05 -1.2592159049867675e-07 -1.4988524103634017e-07 1.1967425599399611e-05 -2.6155101776109628e-09 7.807087943204239e-09)
(4.355094448903526e-05 -1.0318393165202757e-07 -1.504346592052375e-07 1.2004384724491218e-05 -2.2110291720752987e-09 7.828233936279927e-09)
(4.360721641779986e-05 -7.602644613622427e-08 -1.5090586913611906e-07 1.2034191062054323e-05 -1.836660318831958e-09 7.851815167505891e-09)
(4.365885985667037e-05 -5.942533101280478e-08 -1.5145442634491807e-07 1.2057640786825902e-05 -1.4349093392377993e-09 7.876892079895245e-09)
(4.3726393087761175e-05 -6.861883486141064e-08 -1.5223751682397624e-07 1.2075603990146992e-05 -9.45491542741195e-10 7.902223887184481e-09)
(4.3805079089363976e-05 -9.779698666918675e-08 -1.5315468883266425e-07 1.2088238195607026e-05 -3.831373674988367e-10 7.924584988537197e-09)
(4.386157759360695e-05 -1.1731692123044952e-07 -1.5381388917776463e-07 1.2094893275429086e-05 1.524710958064605e-10 7.9385126320332e-09)
(5.145348844944522e-07 -9.859516983269267e-11 -6.912926073695932e-10 1.6885995338897623e-11 -6.5028208583073e-11 5.035218275533535e-10)
(2.709608690166272e-06 -3.497767999053721e-09 -3.4977679990537234e-09 2.8933730561779817e-09 -1.112747505398586e-09 2.893373056177974e-09)
(4.795292264171677e-06 -1.365219719807693e-08 -5.573568940084946e-09 1.858854774536805e-08 -6.312622576590404e-09 6.916073975575786e-09)
(6.4957135338040776e-06 -2.8899068172017193e-08 -7.490764261405865e-09 6.162358854942711e-08 -1.815967455007011e-08 1.2036779524821706e-08)
(7.998308258295085e-06 -4.551728090959071e-08 -9.688425167574365e-09 1.522069117061799e-07 -3.790938485342044e-08 1.7617729922465485e-08)
(9.518972792003253e-06 -6.454680079984066e-08 -1.234476391885082e-08 3.09088123906681e-07 -6.533411458594336e-08 2.3270810033303015e-08)
(1.122400837587141e-05 -8.94822033373582e-08 -1.5879005339530485e-08 5.505737417505087e-07 -9.956491776976649e-08 2.8746558731250396e-08)
(1.3237723444156093e-05 -1.2543638131372903e-07 -2.1511877389437253e-08 8.916252560740785e-07 -1.3916695407324591e-07 3.3928921262775055e-08)
(1.5652423791712445e-05 -1.7791570394501946e-07 -3.1444291842095424e-08 1.3419051644153847e-06 -1.8219847089320113e-07 3.882864543878582e-08)
(1.8539212213458106e-05 -2.473868739003915e-07 -4.878799195446939e-08 1.9060566279817334e-06 -2.2690403725720643e-07 4.351702684910574e-08)
(2.195558461903333e-05 -3.299844133801614e-07 -7.687915242582721e-08 2.5848977068770907e-06 -2.716778146222905e-07 4.809689953082279e-08)
(2.59424060051859e-05 -4.154206283572532e-07 -1.187412285680654e-07 3.374064780243314e-06 -3.151621970091253e-07 5.270228752481067e-08)
(3.052301981357787e-05 -4.889955287284424e-07 -1.7659059565422602e-07 4.266917473712914e-06 -3.5636503307952267e-07 5.744197748050381e-08)
(3.569504719960358e-05 -5.298988094649557e-07 -2.511545713029385e-07 5.254877557105243e-06 -3.949935499349644e-07 6.236872391473724e-08)
(4.144095558025968e-05 -5.167102111325611e-07 -3.420054692362887e-07 6.3298267536154e-06 -4.3094112182041e-07 6.74844938924811e-08)
(4.7710866451381585e-05 -4.2864852201952184e-07 -4.465458575708265e-07 7.483961357685693e-06 -4.642785330371093e-07 7.269049320735443e-08)
(5.444216262483459e-05 -2.467940630033631e-07 -5.615684266757238e-07 8.709499306989959e-06 -4.95049114553859e-07 7.785656319392462e-08)
(6.155205694941866e-05 4.0585440642333205e-08 -6.83003522511509e-07 1.0000177179497386e-05 -5.231417586730631e-07 8.279963382185531e-08)
(6.894925312284565e-05 4.427809580151959e-07 -8.065109593442985e-07 1.1349574489207368e-05 -5.48375929156545e-07 8.733028518074216e-08)
(7.653679373316363e-05 9.594605447459185e-07 -9.280584315835822e-07 1.2750872476976408e-05 -5.703432946634084e-07 9.134959459033328e-08)
(8.421453953596994e-05 1.5852225602681535e-06 -1.0437457862566812e-06 1.4197150019684946e-05 -5.885137513182134e-07 9.48063323006817e-08)
(9.188797888477009e-05 2.3106641600139534e-06 -1.1505421757712862e-06 1.5680250711718373e-05 -6.024694432235299e-07 9.769624023603362e-08)
(9.948177487933075e-05 3.1206762762644157e-06 -1.2470372812647322e-06 1.7191625985919494e-05 -6.120056537009946e-07 1.0009591865040537e-07)
(0.00010691713751909933 3.99840409223992e-06 -1.3319481610216135e-06 1.872142756408399e-05 -6.169503177924514e-07 1.0208786384685859e-07)
(0.00011413675096317938 4.9254749118562595e-06 -1.4047149557761672e-06 2.026087597700534e-05 -6.173399840717423e-07 1.037395339356764e-07)
(0.0001210872241167062 5.881735145609455e-06 -1.4650660488832608e-06 2.1800354735044912e-05 -6.133133678650378e-07 1.0511030981514616e-07)
(0.00012772526784546076 6.847703660697516e-06 -1.5130781614605806e-06 2.3330872861296417e-05 -6.050689313112876e-07 1.062620131340728e-07)
(0.00013403149516737122 7.806052516435112e-06 -1.5497690769920755e-06 2.484397365199194e-05 -5.929686739411414e-07 1.0725781078058199e-07)
(0.0001399940334523703 8.739926203667405e-06 -1.5763830739126214e-06 2.6331894702593828e-05 -5.774099120028345e-07 1.0816353796832847e-07)
(0.0001456036685044048 9.633757140586808e-06 -1.5941231382630594e-06 2.7786822957791887e-05 -5.587922566970176e-07 1.0904970403081342e-07)
(0.00015086557661219378 1.0475821843896921e-05 -1.6041503214582227e-06 2.920354662108173e-05 -5.374840703342544e-07 1.0999444111581023e-07)
(0.0001557820572467869 1.1253753904090845e-05 -1.6076425282423037e-06 3.057577393688504e-05 -5.138826481708811e-07 1.1107626925972809e-07)
(0.0001603649560625099 1.1958158384088057e-05 -1.6057122506551265e-06 3.189926614740025e-05 -4.884643482478233e-07 1.1233074020307377e-07)
(0.0001646355431455827 1.2582672391767743e-05 -1.5993914209761139e-06 3.317185509381102e-05 -4.6178592523079615e-07 1.1374805224836758e-07)
(0.0001686141982981596 1.3120704128414193e-05 -1.5897444961426508e-06 3.439082865118698e-05 -4.3442116286904344e-07 1.1531637160570436e-07)
(0.00017232399478737929 1.3568223385955505e-05 -1.5778710566860545e-06 3.555450960739238e-05 -4.0663619821013756e-07 1.1704328061858805e-07)
(0.00017578827096821322 1.3923210794530406e-05 -1.5649117859010335e-06 3.666146228494945e-05 -3.784343771409603e-07 1.1895310862365165e-07)
(0.00017903244246734952 1.4184030378019527e-05 -1.5520422580338365e-06 3.771061214517147e-05 -3.498150525407136e-07 1.2107234332199792e-07)
(0.0001820834469365189 1.4353119468103263e-05 -1.5404668526464057e-06 3.87010163149661e-05 -3.210522733820366e-07 1.2343375995101619e-07)
(0.0001849706874015822 1.443687830490968e-05 -1.5314172131917553e-06 3.9632157255015856e-05 -2.9267425196975373e-07 1.2607682120975626e-07)
(0.0001877235720350968 1.444213278050224e-05 -1.5261444384469216e-06 4.050334903593181e-05 -2.652428409254352e-07 1.2903989000099314e-07)
(0.00019036607182310397 1.4377855448816396e-05 -1.5252132067949288e-06 4.131697420115835e-05 -2.392748006787082e-07 1.3230975866067455e-07)
(0.00019291372568147874 1.4255520246097338e-05 -1.5283661277394408e-06 4.207851493515625e-05 -2.1524710847810888e-07 1.3580968367328726e-07)
(0.0001953832820551699 1.4087046497491088e-05 -1.5352897398967604e-06 4.2794171582521294e-05 -1.93635156851187e-07 1.3945869751599065e-07)
(0.00019779161071684976 1.3881957854925904e-05 -1.5456332422477882e-06 4.346998631885928e-05 -1.7469805876072439e-07 1.4320455621051802e-07)
(0.00020015638451183413 1.364525771289204e-05 -1.5589860203553866e-06 4.4111889232257386e-05 -1.582914880151621e-07 1.4704874608423276e-07)
(0.00020249663763840424 1.338158654841062e-05 -1.5749210833278217e-06 4.4726194200826954e-05 -1.442190498888421e-07 1.5099938953955662e-07)
(0.00020482554479699482 1.3095210551258617e-05 -1.5929409420555642e-06 4.531898086241907e-05 -1.3226153162490755e-07 1.5504695918049778e-07)
(0.00020714010829268325 1.2788502321732004e-05 -1.6123850865221324e-06 4.5896008598282983e-05 -1.221255050115343e-07 1.5913241433163692e-07)
(0.00020943185262636686 1.2463815388368266e-05 -1.6325243540770659e-06 4.6462581188598106e-05 -1.1350465945610243e-07 1.6318143796757218e-07)
(0.00021169712018582077 1.2123226317494084e-05 -1.652811867362546e-06 4.702403909257106e-05 -1.0608780663740115e-07 1.671424047611571e-07)
(0.0002139512341605195 1.1768460989512928e-05 -1.6739213211663574e-06 4.7581352510947174e-05 -9.965250639534456e-08 1.7110217753941427e-07)
(0.0002162196603187266 1.140085256648793e-05 -1.6970664867157835e-06 4.8134160689192364e-05 -9.40022505283234e-08 1.7521053167331285e-07)
(0.0002185267192653269 1.1021945712875986e-05 -1.7234298390764106e-06 4.868197146615428e-05 -8.895203027954179e-08 1.796134379745383e-07)
(0.00022087772311226773 1.0633510786443378e-05 -1.753034457542983e-06 4.9226582067549764e-05 -8.460331522562273e-08 1.8432525337434345e-07)
(0.00022325961512804175 1.0237674443379761e-05 -1.7848262260951232e-06 4.9771692776106516e-05 -8.132392887505821e-08 1.8923752970956284e-07)
(0.0002256583130943022 9.836645151256355e-06 -1.8176792792818408e-06 5.032119030668066e-05 -7.950076212124624e-08 1.942339433011115e-07)
(0.0002280693336892361 9.432419999584648e-06 -1.8508366269242167e-06 5.087781740839436e-05 -7.9189188919705e-08 1.9922152047336147e-07)
(0.0002305097244396186 9.026400967150448e-06 -1.8843837889336e-06 5.1441778616740646e-05 -7.971685733961222e-08 2.04162724160105e-07)
(0.00023299917671167398 8.620067766545292e-06 -1.9185101810173793e-06 5.201278975692484e-05 -8.029535596382261e-08 2.090248300290876e-07)
(0.00023555603259271658 8.214480375728012e-06 -1.9533766658253283e-06 5.259057647999333e-05 -8.023208551057745e-08 2.137960404194256e-07)
(0.0002381802362334791 7.809034099179312e-06 -1.988844650128045e-06 5.317339566943854e-05 -7.954888584744082e-08 2.185832146880925e-07)
(0.0002408656701397944 7.402301805719517e-06 -2.0246712856324505e-06 5.375913716768582e-05 -7.854370254432041e-08 2.2354323370334122e-07)
(0.0002436058583001834 6.992905549119905e-06 -2.0606056266725155e-06 5.4345659032525454e-05 -7.752714503878347e-08 2.2883062421569766e-07)
(0.00024639909634446844 6.580563001801917e-06 -2.096507097747313e-06 5.493351622061118e-05 -7.686482007540436e-08 2.344337089373254e-07)
(0.0002492501923720772 6.165944286301928e-06 -2.1323710108058614e-06 5.5526429466668096e-05 -7.69798744345429e-08 2.4016718780406696e-07)
(0.00025216363300525045 5.749900376865466e-06 -2.1681888834850736e-06 5.612822416027995e-05 -7.831185211145588e-08 2.458300637420327e-07)
(0.0002551425730215192 5.332499351016659e-06 -2.203934091329328e-06 5.6741690288627004e-05 -8.10383118273465e-08 2.5128022032665726e-07)
(0.0002581877581915455 4.911138704446683e-06 -2.2395480648563293e-06 5.736663054371865e-05 -8.452210909280533e-08 2.5656961767189455e-07)
(0.0002612993491417636 4.482654314632683e-06 -2.274962635987371e-06 5.800224072600545e-05 -8.795264282048784e-08 2.6178846144423754e-07)
(0.00026447843591701837 4.044315895660201e-06 -2.3101904916852283e-06 5.8647408242364e-05 -9.056806655799719e-08 2.67024253217195e-07)
(0.000267744646112413 3.597662713343873e-06 -2.346201786281411e-06 5.929990783895189e-05 -9.237886758978803e-08 2.723222130959931e-07)
(0.00027112833156051 3.146982362693064e-06 -2.384555050251007e-06 5.9956628422458575e-05 -9.386669576132737e-08 2.7770091330298446e-07)
(0.00027466104400763157 2.6967010705094135e-06 -2.4268586194385796e-06 6.061444543496925e-05 -9.553280363877118e-08 2.831794162342135e-07)
(0.0002783464401448044 2.2524621271134626e-06 -2.473594012734687e-06 6.127180426460312e-05 -9.764218207974882e-08 2.8874192345041085e-07)
(0.0002821408993413265 1.8216322456198033e-06 -2.523257521275242e-06 6.193041555754231e-05 -1.0003454370009594e-07 2.9431474442802216e-07)
(0.0002859940949271624 1.4120404844048082e-06 -2.57409005375561e-06 6.259227787003048e-05 -1.0250107585012996e-07 2.998152321607531e-07)
(0.00028986259010170903 1.0304368515732747e-06 -2.6244869140626315e-06 6.32589842313537e-05 -1.0485277628520212e-07 3.0517723184200914e-07)
(0.000293750276363554 6.762940822590869e-07 -2.6739933713643338e-06 6.392970615042679e-05 -1.0704447473716871e-07 3.1044061735577415e-07)
(0.0002976758755568995 3.4666716729213585e-07 -2.7225279284974754e-06 6.4602358247985e-05 -1.0908017406762469e-07 3.1568111448412035e-07)
(0.00030165877262017775 3.834589242889751e-08 -2.7700232173517406e-06 6.527506748151723e-05 -1.1096289364368044e-07 3.2097599089388797e-07)
(0.0003056863108036961 -2.524924610461362e-07 -2.8163645231613797e-06 6.594690699261037e-05 -1.1264724783891691e-07 3.263341146963268e-07)
(0.000309711068033493 -5.302550991403716e-07 -2.861377058418952e-06 6.661779696697661e-05 -1.1403644762844507e-07 3.316908673814158e-07)
(0.0003136834750036528 -7.995933050859964e-07 -2.9048897406602782e-06 6.728785963469167e-05 -1.1502873198874535e-07 3.369774606309144e-07)
(0.00031756703818514585 -1.0626832016512658e-06 -2.947070983878312e-06 6.795665934662371e-05 -1.155658388325999e-07 3.421434480323553e-07)
(0.0003213667222467268 -1.313958633817032e-06 -2.989103952751753e-06 6.862194468762537e-05 -1.1572597403946498e-07 3.4719654848953984e-07)