/*--------------------------------*- C++ -*----------------------------------*\
  =========                 |
  \\      /  F ield         | OpenFOAM: The Open Source CFD Toolbox
   \\    /   O peration     | Website:  https://openfoam.org
    \\  /    A nd           | Version:  6
     \\/     M anipulation  |
\*---------------------------------------------------------------------------*/
FoamFile
{
    version     2.0;
    format      ascii;
    class       volSymmTensorField;
    location    "98.28";
    object      turbulenceProperties:R;
}
// * * * * * * * * * * * * * * * * * * * * * * * * * * * * * * * * * * * * * //

dimensions      [0 2 -2 0 0 0 0];

internalField   nonuniform List<symmTensor> 
15625
(
(0.00030564 -4.24249e-06 -4.24249e-06 0.00030564 4.72693e-18 0.00030564)
(0.00034349 -3.7512e-06 -1.18724e-05 0.00034349 2.90352e-18 0.00034349)
(0.000417775 -3.81941e-06 -2.0626e-05 0.000417775 2.0499e-18 0.000417775)
(0.000517426 -4.01086e-06 -3.08622e-05 0.000517426 1.77633e-18 0.000517426)
(0.000631755 -4.20293e-06 -4.23851e-05 0.000631755 1.44285e-18 0.000631755)
(0.000752667 -4.34139e-06 -5.48206e-05 0.000752667 1.18759e-18 0.000752667)
(0.000874693 -4.40955e-06 -6.77929e-05 0.000874693 1.00561e-18 0.000874693)
(0.000994427 -4.41155e-06 -8.09886e-05 0.000994427 8.73298e-19 0.000994427)
(0.00110992 -4.36047e-06 -9.41719e-05 0.00110992 7.74465e-19 0.00110992)
(0.00122021 -4.27102e-06 -0.00010718 0.00122021 6.982e-19 0.00122021)
(0.00132493 -4.15706e-06 -0.000119909 0.00132493 6.3684e-19 0.00132493)
(0.00142411 -4.0291e-06 -0.000132298 0.00142411 5.85868e-19 0.00142411)
(0.00151797 -3.89456e-06 -0.000144316 0.00151797 5.43303e-19 0.00151797)
(0.00160685 -3.75877e-06 -0.000155951 0.00160685 5.07095e-19 0.00160685)
(0.00169111 -3.62509e-06 -0.000167207 0.00169111 4.7604e-19 0.00169111)
(0.00177111 -3.49516e-06 -0.000178093 0.00177111 4.4874e-19 0.00177111)
(0.00184721 -3.3701e-06 -0.000188622 0.00184721 4.24762e-19 0.00184721)
(0.00191973 -3.25043e-06 -0.000198811 0.00191973 4.03747e-19 0.00191973)
(0.00198897 -3.13644e-06 -0.000208676 0.00198897 3.83048e-19 0.00198897)
(0.00205519 -3.02832e-06 -0.000218233 0.00205519 3.64233e-19 0.00205519)
(0.00211862 -2.92538e-06 -0.000227498 0.00211862 3.49317e-19 0.00211862)
(0.00217949 -2.82752e-06 -0.000236487 0.00217949 3.36455e-19 0.00217949)
(0.00223797 -2.73475e-06 -0.000245213 0.00223797 3.24108e-19 0.00223797)
(0.00229425 -2.64632e-06 -0.000253691 0.00229425 3.1377e-19 0.00229425)
(0.00234846 -2.56194e-06 -0.000261931 0.00234846 3.03943e-19 0.00234846)
(0.00240075 -2.48181e-06 -0.000269946 0.00240075 2.93134e-19 0.00240075)
(0.00245125 -2.40547e-06 -0.000277746 0.00245125 2.83818e-19 0.00245125)
(0.00250005 -2.33268e-06 -0.000285343 0.00250005 2.75498e-19 0.00250005)
(0.00254727 -2.26313e-06 -0.000292744 0.00254727 2.67242e-19 0.00254727)
(0.00259299 -2.19648e-06 -0.000299958 0.00259299 2.59954e-19 0.00259299)
(0.0026373 -2.13265e-06 -0.000306995 0.0026373 2.52629e-19 0.0026373)
(0.00268028 -2.07151e-06 -0.00031386 0.00268028 2.43886e-19 0.00268028)
(0.00272199 -2.01293e-06 -0.000320561 0.00272199 2.34341e-19 0.00272199)
(0.00276251 -1.95675e-06 -0.000327105 0.00276251 2.26264e-19 0.00276251)
(0.00280188 -1.90277e-06 -0.000333498 0.00280188 2.18638e-19 0.00280188)
(0.00284017 -1.85081e-06 -0.000339745 0.00284017 2.11458e-19 0.00284017)
(0.00287743 -1.80095e-06 -0.000345852 0.00287743 2.06392e-19 0.00287743)
(0.0029137 -1.75266e-06 -0.000351825 0.0029137 2.01768e-19 0.0029137)
(0.00294903 -1.70632e-06 -0.000357666 0.00294903 1.9734e-19 0.00294903)
(0.00298346 -1.66198e-06 -0.000363382 0.00298346 1.93825e-19 0.00298346)
(0.00301702 -1.6188e-06 -0.000368978 0.00301702 1.91028e-19 0.00301702)
(0.00304975 -1.57712e-06 -0.000374455 0.00304975 1.85158e-19 0.00304975)
(0.00308169 -1.53698e-06 -0.000379819 0.00308169 1.77333e-19 0.00308169)
(0.00311287 -1.49811e-06 -0.000385073 0.00311287 1.73769e-19 0.00311287)
(0.0031433 -1.46054e-06 -0.00039022 0.0031433 1.70149e-19 0.0031433)
(0.00317303 -1.42401e-06 -0.000395263 0.00317303 1.65922e-19 0.00317303)
(0.00320207 -1.38854e-06 -0.000400206 0.00320207 1.63689e-19 0.00320207)
(0.00323046 -1.35445e-06 -0.000405051 0.00323046 1.61008e-19 0.00323046)
(0.00325821 -1.32146e-06 -0.000409802 0.00325821 1.59321e-19 0.00325821)
(0.00328534 -1.28929e-06 -0.00041446 0.00328534 1.5515e-19 0.00328534)
(0.00331188 -1.25794e-06 -0.000419028 0.00331188 1.48612e-19 0.00331188)
(0.00333784 -1.22744e-06 -0.000423508 0.00333784 1.44131e-19 0.00333784)
(0.00336324 -1.1981e-06 -0.000427903 0.00336324 1.42208e-19 0.00336324)
(0.0033881 -1.16933e-06 -0.000432215 0.0033881 1.37871e-19 0.0033881)
(0.00341243 -1.14144e-06 -0.000436445 0.00341243 1.32481e-19 0.00341243)
(0.00343625 -1.11443e-06 -0.000440595 0.00343625 1.27702e-19 0.00343625)
(0.00345957 -1.08772e-06 -0.000444668 0.00345957 1.2205e-19 0.00345957)
(0.00348241 -1.06191e-06 -0.000448665 0.00348241 1.18153e-19 0.00348241)
(0.00350477 -1.03671e-06 -0.000452587 0.00350477 1.14608e-19 0.00350477)
(0.00352667 -1.01213e-06 -0.000456437 0.00352667 1.10277e-19 0.00352667)
(0.00354813 -9.88454e-07 -0.000460214 0.00354813 1.09831e-19 0.00354813)
(0.00356915 -9.65113e-07 -0.000463922 0.00356915 1.09511e-19 0.00356915)
(0.00358973 -9.41815e-07 -0.000467561 0.00358973 1.04234e-19 0.00358973)
(0.00360991 -9.19726e-07 -0.000471132 0.00360991 9.99384e-20 0.00360991)
(0.00362967 -8.97983e-07 -0.000474637 0.00362967 9.99937e-20 0.00362967)
(0.00364903 -8.76292e-07 -0.000478076 0.00364903 1.01962e-19 0.00364903)
(0.00366799 -8.55527e-07 -0.000481451 0.00366799 1.00864e-19 0.00366799)
(0.00368657 -8.35112e-07 -0.000484763 0.00368657 9.64894e-20 0.00368657)
(0.00370478 -8.15048e-07 -0.000488014 0.00370478 9.16019e-20 0.00370478)
(0.00372261 -7.95622e-07 -0.000491201 0.00372261 9.04279e-20 0.00372261)
(0.00374009 -7.76266e-07 -0.000494329 0.00374009 9.00936e-20 0.00374009)
(0.00375719 -7.56982e-07 -0.000497398 0.00375719 8.94764e-20 0.00375719)
(0.00377395 -7.38619e-07 -0.000500405 0.00377395 8.93336e-20 0.00377395)
(0.00379036 -7.20337e-07 -0.000503356 0.00379036 9.02394e-20 0.00379036)
(0.00380643 -7.02407e-07 -0.000506247 0.00380643 9.57917e-20 0.00380643)
(0.00382216 -6.8512e-07 -0.000509083 0.00382216 9.65182e-20 0.00382216)
(0.00383756 -6.67631e-07 -0.000511861 0.00383756 9.14732e-20 0.00383756)
(0.00385263 -6.50504e-07 -0.000514585 0.00385263 8.61098e-20 0.00385263)
(0.00386737 -6.33737e-07 -0.000517251 0.00386737 8.02478e-20 0.00386737)
(0.0038818 -6.1733e-07 -0.000519864 0.0038818 8.13415e-20 0.0038818)
(0.00389591 -6.01008e-07 -0.000522421 0.00389591 8.6053e-20 0.00389591)
(0.00390969 -5.84771e-07 -0.000524923 0.00390969 8.82902e-20 0.00390969)
(0.00392317 -5.69168e-07 -0.000527371 0.00392317 8.38527e-20 0.00392317)
(0.00393635 -5.53654e-07 -0.000529767 0.00393635 7.76078e-20 0.00393635)
(0.00394921 -5.38497e-07 -0.000532108 0.00394921 7.82661e-20 0.00394921)
(0.00396177 -5.23162e-07 -0.000534396 0.00396177 7.54597e-20 0.00396177)
(0.00397403 -5.07915e-07 -0.000536632 0.00397403 6.57716e-20 0.00397403)
(0.00398599 -4.93564e-07 -0.000538814 0.00398599 5.54831e-20 0.00398599)
(0.00399764 -4.78772e-07 -0.000540945 0.00399764 4.75367e-20 0.00399764)
(0.004009 -4.64071e-07 -0.000543021 0.004009 4.40999e-20 0.004009)
(0.00402007 -4.49995e-07 -0.000545046 0.00402007 4.26247e-20 0.00402007)
(0.00403084 -4.35749e-07 -0.000547018 0.00403084 4.10089e-20 0.00403084)
(0.00404131 -4.21858e-07 -0.000548937 0.00404131 4.11706e-20 0.00404131)
(0.00405149 -4.08065e-07 -0.000550805 0.00405149 4.40415e-20 0.00405149)
(0.00406138 -3.93849e-07 -0.00055262 0.00406138 4.29193e-20 0.00406138)
(0.00407097 -3.80248e-07 -0.000554381 0.00407097 3.51576e-20 0.00407097)
(0.00408028 -3.67005e-07 -0.000556092 0.00408028 2.23607e-20 0.00408028)
(0.00408929 -3.53346e-07 -0.000557749 0.00408929 1.73433e-20 0.00408929)
(0.004098 -3.40041e-07 -0.000559352 0.004098 2.16826e-20 0.004098)
(0.00410642 -3.2684e-07 -0.000560903 0.00410642 2.37538e-20 0.00410642)
(0.00411455 -3.13486e-07 -0.0005624 0.00411455 2.16195e-20 0.00411455)
(0.00412238 -3.00489e-07 -0.000563844 0.00412238 1.54037e-20 0.00412238)
(0.00412991 -2.87594e-07 -0.000565234 0.00412991 1.2762e-20 0.00412991)
(0.00413715 -2.74554e-07 -0.000566569 0.00413715 2.31685e-20 0.00413715)
(0.00414409 -2.61372e-07 -0.00056785 0.00414409 3.57114e-20 0.00414409)
(0.00415073 -2.48546e-07 -0.000569076 0.00415073 3.30416e-20 0.00415073)
(0.00415707 -2.36073e-07 -0.000570246 0.00415707 3.94352e-20 0.00415707)
(0.0041631 -2.2322e-07 -0.000571363 0.0041631 5.26188e-20 0.0041631)
(0.00416882 -2.10233e-07 -0.000572421 0.00416882 5.81545e-20 0.00416882)
(0.00417424 -1.97603e-07 -0.000573424 0.00417424 6.14551e-20 0.00417424)
(0.00417935 -1.85085e-07 -0.000574369 0.00417935 6.82584e-20 0.00417935)
(0.00418414 -1.72441e-07 -0.000575256 0.00418414 6.99968e-20 0.00418414)
(0.00418861 -1.59674e-07 -0.000576085 0.00418861 6.45024e-20 0.00418861)
(0.00419277 -1.47027e-07 -0.000576855 0.00419277 6.45336e-20 0.00419277)
(0.00419661 -1.34263e-07 -0.000577565 0.00419661 6.6014e-20 0.00419661)
(0.00420011 -1.2162e-07 -0.000578215 0.00420011 6.7053e-20 0.00420011)
(0.00420329 -1.09101e-07 -0.000578804 0.00420329 6.32893e-20 0.00420329)
(0.00420613 -9.62414e-08 -0.000579331 0.00420613 4.9616e-20 0.00420613)
(0.00420863 -8.35089e-08 -0.000579796 0.00420863 3.53126e-20 0.00420863)
(0.0042108 -7.09064e-08 -0.000580197 0.0042108 2.70509e-20 0.0042108)
(0.00421261 -5.82043e-08 -0.000580533 0.00421261 1.90784e-20 0.00421261)
(0.00421407 -4.54082e-08 -0.000580805 0.00421407 1.13577e-20 0.00421407)
(0.00421518 -3.22958e-08 -0.00058101 0.00421518 1.01662e-20 0.00421518)
(0.00421593 -1.93227e-08 -0.000581148 0.00421593 3.13978e-21 0.00421593)
(0.0042163 -6.49197e-09 -0.000581218 0.0042163 -4.02044e-21 0.0042163)
(0.00034349 -1.18724e-05 -3.7512e-06 0.00034349 2.90206e-18 0.00034349)
(0.000290096 -1.0421e-05 -1.0421e-05 0.000290096 -3.03681e-18 0.000290096)
(0.000298229 -1.01589e-05 -1.75733e-05 0.000298229 -1.50738e-18 0.000298229)
(0.000337777 -1.01771e-05 -2.54962e-05 0.000337777 -3.88436e-19 0.000337777)
(0.000393641 -1.0333e-05 -3.44325e-05 0.000393641 5.63667e-20 0.000393641)
(0.000457242 -1.04832e-05 -4.42751e-05 0.000457242 2.5929e-19 0.000457242)
(0.000523492 -1.05416e-05 -5.47187e-05 0.000523492 3.53316e-19 0.000523492)
(0.000589413 -1.04841e-05 -6.54488e-05 0.000589413 3.85482e-19 0.000589413)
(0.000653349 -1.03232e-05 -7.62186e-05 0.000653349 3.85198e-19 0.000653349)
(0.000714473 -1.00847e-05 -8.68589e-05 0.000714473 3.71662e-19 0.000714473)
(0.000772467 -9.79586e-06 -9.72658e-05 0.000772467 3.53025e-19 0.000772467)
(0.00082728 -9.47853e-06 -0.000107381 0.00082728 3.32197e-19 0.00082728)
(0.00087904 -9.14902e-06 -0.000117177 0.00087904 3.12302e-19 0.00087904)
(0.00092794 -8.81887e-06 -0.000126647 0.00092794 2.92578e-19 0.00092794)
(0.0009742 -8.49503e-06 -0.000135794 0.0009742 2.75856e-19 0.0009742)
(0.00101805 -8.18137e-06 -0.000144628 0.00101805 2.61321e-19 0.00101805)
(0.00105969 -7.88048e-06 -0.000153164 0.00105969 2.48113e-19 0.00105969)
(0.00109934 -7.59359e-06 -0.000161417 0.00109934 2.36866e-19 0.00109934)
(0.00113715 -7.32064e-06 -0.000169402 0.00113715 2.228e-19 0.00113715)
(0.0011733 -7.0615e-06 -0.000177134 0.0011733 2.1016e-19 0.0011733)
(0.00120791 -6.81592e-06 -0.000184628 0.00120791 2.01467e-19 0.00120791)
(0.00124112 -6.58276e-06 -0.000191897 0.00124112 1.9349e-19 0.00124112)
(0.00127303 -6.36162e-06 -0.000198953 0.00127303 1.8595e-19 0.00127303)
(0.00130373 -6.15173e-06 -0.000205808 0.00130373 1.79829e-19 0.00130373)
(0.00133332 -5.95192e-06 -0.000212473 0.00133332 1.73805e-19 0.00133332)
(0.00136188 -5.76215e-06 -0.000218959 0.00136188 1.65927e-19 0.00136188)
(0.00138947 -5.58131e-06 -0.000225273 0.00138947 1.58011e-19 0.00138947)
(0.00141615 -5.40895e-06 -0.000231425 0.00141615 1.51993e-19 0.00141615)
(0.00144199 -5.24472e-06 -0.000237421 0.00144199 1.46976e-19 0.00144199)
(0.00146703 -5.08793e-06 -0.000243269 0.00146703 1.41432e-19 0.00146703)
(0.00149133 -4.93802e-06 -0.000248979 0.00149133 1.36724e-19 0.00149133)
(0.00151491 -4.79463e-06 -0.00025455 0.00151491 1.33528e-19 0.00151491)
(0.00153783 -4.65708e-06 -0.000259995 0.00153783 1.26069e-19 0.00153783)
(0.00156011 -4.52513e-06 -0.000265317 0.00156011 1.1862e-19 0.00156011)
(0.0015818 -4.39857e-06 -0.000270521 0.0015818 1.15264e-19 0.0015818)
(0.00160291 -4.27736e-06 -0.000275611 0.00160291 1.10016e-19 0.00160291)
(0.00162348 -4.1609e-06 -0.000280588 0.00162348 1.06765e-19 0.00162348)
(0.00164353 -4.04828e-06 -0.000285464 0.00164353 1.02987e-19 0.00164353)
(0.00166308 -3.94024e-06 -0.000290236 0.00166308 9.97422e-20 0.00166308)
(0.00168217 -3.83637e-06 -0.000294912 0.00168217 9.84135e-20 0.00168217)
(0.00170079 -3.73598e-06 -0.000299494 0.00170079 9.5711e-20 0.00170079)
(0.00171899 -3.63888e-06 -0.000303983 0.00171899 9.29357e-20 0.00171899)
(0.00173677 -3.54548e-06 -0.000308383 0.00173677 8.69788e-20 0.00173677)
(0.00175415 -3.45531e-06 -0.000312703 0.00175415 8.52212e-20 0.00175415)
(0.00177114 -3.3676e-06 -0.000316936 0.00177114 8.52081e-20 0.00177114)
(0.00178776 -3.28328e-06 -0.000321089 0.00178776 8.11704e-20 0.00178776)
(0.00180403 -3.20158e-06 -0.000325164 0.00180403 7.94552e-20 0.00180403)
(0.00181995 -3.12198e-06 -0.000329161 0.00181995 7.8857e-20 0.00181995)
(0.00183553 -3.04539e-06 -0.000333089 0.00183553 7.85477e-20 0.00183553)
(0.0018508 -2.971e-06 -0.000336941 0.0018508 7.67873e-20 0.0018508)
(0.00186575 -2.89858e-06 -0.000340726 0.00186575 7.26827e-20 0.00186575)
(0.0018804 -2.82845e-06 -0.000344444 0.0018804 7.22795e-20 0.0018804)
(0.00189475 -2.76008e-06 -0.000348094 0.00189475 6.98745e-20 0.00189475)
(0.00190882 -2.69378e-06 -0.000351678 0.00190882 6.54103e-20 0.00190882)
(0.00192261 -2.62929e-06 -0.000355201 0.00192261 6.35435e-20 0.00192261)
(0.00193614 -2.56665e-06 -0.000358657 0.00193614 6.17041e-20 0.00193614)
(0.0019494 -2.5056e-06 -0.000362058 0.0019494 5.8881e-20 0.0019494)
(0.0019624 -2.44587e-06 -0.000365398 0.0019624 5.74878e-20 0.0019624)
(0.00197516 -2.38804e-06 -0.000368678 0.00197516 5.42233e-20 0.00197516)
(0.00198767 -2.33129e-06 -0.000371905 0.00198767 5.11556e-20 0.00198767)
(0.00199994 -2.27592e-06 -0.000375074 0.00199994 5.40262e-20 0.00199994)
(0.00201198 -2.22221e-06 -0.000378184 0.00201198 5.46887e-20 0.00201198)
(0.00202379 -2.16962e-06 -0.000381243 0.00202379 4.97546e-20 0.00202379)
(0.00203539 -2.11817e-06 -0.000384251 0.00203539 4.62037e-20 0.00203539)
(0.00204675 -2.06785e-06 -0.000387206 0.00204675 4.78542e-20 0.00204675)
(0.00205791 -2.01869e-06 -0.000390104 0.00205791 5.06373e-20 0.00205791)
(0.00206885 -1.97069e-06 -0.000392958 0.00206885 4.99192e-20 0.00206885)
(0.00207959 -1.92357e-06 -0.000395758 0.00207959 4.66847e-20 0.00207959)
(0.00209013 -1.87736e-06 -0.000398508 0.00209013 4.46009e-20 0.00209013)
(0.00210046 -1.83205e-06 -0.000401211 0.00210046 4.2037e-20 0.00210046)
(0.0021106 -1.78765e-06 -0.000403864 0.0021106 3.94323e-20 0.0021106)
(0.00212054 -1.74416e-06 -0.000406474 0.00212054 4.58652e-20 0.00212054)
(0.00213029 -1.70132e-06 -0.000409031 0.00213029 4.91828e-20 0.00213029)
(0.00213985 -1.6594e-06 -0.000411542 0.00213985 4.4341e-20 0.00213985)
(0.00214923 -1.61841e-06 -0.000414008 0.00214923 4.64862e-20 0.00214923)
(0.00215841 -1.57781e-06 -0.000416428 0.00215841 5.00522e-20 0.00215841)
(0.00216742 -1.53786e-06 -0.0004188 0.00216742 4.95337e-20 0.00216742)
(0.00217624 -1.49886e-06 -0.000421126 0.00217624 4.67016e-20 0.00217624)
(0.00218489 -1.46052e-06 -0.000423411 0.00218489 4.0982e-20 0.00218489)
(0.00219335 -1.42259e-06 -0.00042565 0.00219335 3.99654e-20 0.00219335)
(0.00220164 -1.38506e-06 -0.000427842 0.00220164 4.69196e-20 0.00220164)
(0.00220975 -1.34821e-06 -0.000429992 0.00220975 4.92045e-20 0.00220975)
(0.00221769 -1.31204e-06 -0.000432094 0.00221769 4.6283e-20 0.00221769)
(0.00222546 -1.27628e-06 -0.000434153 0.00222546 4.363e-20 0.00222546)
(0.00223305 -1.24068e-06 -0.000436168 0.00223305 4.17208e-20 0.00223305)
(0.00224048 -1.20577e-06 -0.000438143 0.00224048 3.94652e-20 0.00224048)
(0.00224773 -1.17153e-06 -0.00044007 0.00224773 3.35373e-20 0.00224773)
(0.00225481 -1.13747e-06 -0.000441953 0.00225481 2.85589e-20 0.00225481)
(0.00226172 -1.10383e-06 -0.000443794 0.00226172 2.36308e-20 0.00226172)
(0.00226846 -1.07037e-06 -0.000445586 0.00226846 2.11705e-20 0.00226846)
(0.00227503 -1.03733e-06 -0.000447341 0.00227503 2.25833e-20 0.00227503)
(0.00228143 -1.00499e-06 -0.000449046 0.00228143 2.14997e-20 0.00228143)
(0.00228767 -9.72827e-07 -0.000450714 0.00228767 2.30639e-20 0.00228767)
(0.00229373 -9.40595e-07 -0.00045233 0.00229373 2.67249e-20 0.00229373)
(0.00229963 -9.08804e-07 -0.000453908 0.00229963 2.1879e-20 0.00229963)
(0.00230535 -8.77456e-07 -0.000455439 0.00230535 1.6692e-20 0.00230535)
(0.0023109 -8.46298e-07 -0.000456922 0.0023109 1.19098e-20 0.0023109)
(0.00231629 -8.15339e-07 -0.000458362 0.00231629 7.70415e-21 0.00231629)
(0.0023215 -7.84577e-07 -0.000459758 0.0023215 1.21465e-20 0.0023215)
(0.00232654 -7.5402e-07 -0.00046111 0.00232654 1.50199e-20 0.00232654)
(0.00233141 -7.23423e-07 -0.000462414 0.00233141 1.3132e-20 0.00233141)
(0.0023361 -6.93279e-07 -0.000463673 0.0023361 9.12839e-21 0.0023361)
(0.00234061 -6.63348e-07 -0.000464886 0.00234061 9.74569e-21 0.00234061)
(0.00234496 -6.3339e-07 -0.00046605 0.00234496 1.71299e-20 0.00234496)
(0.00234913 -6.03651e-07 -0.000467169 0.00234913 2.36935e-20 0.00234913)
(0.00235311 -5.74135e-07 -0.000468243 0.00235311 1.76395e-20 0.00235311)
(0.00235692 -5.44604e-07 -0.000469265 0.00235692 2.15101e-20 0.00235692)
(0.00236055 -5.15065e-07 -0.000470241 0.00236055 3.29192e-20 0.00236055)
(0.00236399 -4.85526e-07 -0.000471166 0.00236399 3.68139e-20 0.00236399)
(0.00236726 -4.56224e-07 -0.000472044 0.00236726 4.09091e-20 0.00236726)
(0.00237033 -4.27165e-07 -0.000472871 0.00237033 4.20792e-20 0.00237033)
(0.00237322 -3.97885e-07 -0.00047365 0.00237322 4.13147e-20 0.00237322)
(0.00237592 -3.68623e-07 -0.000474376 0.00237592 4.05883e-20 0.00237592)
(0.00237843 -3.39387e-07 -0.000475051 0.00237843 4.40599e-20 0.00237843)
(0.00238074 -3.10182e-07 -0.000475672 0.00238074 4.58074e-20 0.00238074)
(0.00238285 -2.81014e-07 -0.000476241 0.00238285 4.24616e-20 0.00238285)
(0.00238477 -2.51662e-07 -0.00047676 0.00238477 3.80692e-20 0.00238477)
(0.00238649 -2.22361e-07 -0.000477222 0.00238649 3.27319e-20 0.00238649)
(0.002388 -1.93117e-07 -0.000477629 0.002388 2.47588e-20 0.002388)
(0.00238931 -1.63713e-07 -0.000477982 0.00238931 1.81238e-20 0.00238931)
(0.00239041 -1.34158e-07 -0.000478277 0.00239041 1.04288e-20 0.00239041)
(0.00239129 -1.04462e-07 -0.000478516 0.00239129 8.54197e-21 0.00239129)
(0.00239196 -7.48535e-08 -0.000478695 0.00239196 1.03916e-20 0.00239196)
(0.00239241 -4.51222e-08 -0.000478816 0.00239241 1.53998e-22 0.00239241)
(0.00239263 -1.50586e-08 -0.000478876 0.00239263 -4.89284e-21 0.00239263)
(0.000417775 -2.0626e-05 -3.81941e-06 0.000417775 2.04908e-18 0.000417775)
(0.000298229 -1.75733e-05 -1.01589e-05 0.000298229 -1.50821e-18 0.000298229)
(0.000269933 -1.8142e-05 -1.8142e-05 0.000269933 -1.50237e-18 0.000269933)
(0.000286689 -1.94137e-05 -2.82094e-05 0.000286689 -1.03361e-18 0.000286689)
(0.000326686 -2.06724e-05 -4.00973e-05 0.000326686 -6.21871e-19 0.000326686)
(0.000378448 -2.17206e-05 -5.35715e-05 0.000378448 -3.03981e-19 0.000378448)
(0.000435436 -2.2451e-05 -6.82258e-05 0.000435436 -7.3787e-20 0.000435436)
(0.000493843 -2.2833e-05 -8.35744e-05 0.000493843 7.72195e-20 0.000493843)
(0.000551509 -2.29013e-05 -9.91963e-05 0.000551509 1.68513e-19 0.000551509)
(0.000607287 -2.27208e-05 -0.000114786 0.000607287 2.21236e-19 0.000607287)
(0.00066064 -2.23609e-05 -0.000130147 0.00066064 2.47733e-19 0.00066064)
(0.000711387 -2.18806e-05 -0.000145162 0.000711387 2.60078e-19 0.000711387)
(0.000759547 -2.13252e-05 -0.000159771 0.000759547 2.65144e-19 0.000759547)
(0.00080524 -2.07284e-05 -0.000173946 0.00080524 2.62514e-19 0.00080524)
(0.000848633 -2.01135e-05 -0.000187683 0.000848633 2.57043e-19 0.000848633)
(0.000889907 -1.94965e-05 -0.000200989 0.000889907 2.49687e-19 0.000889907)
(0.000929233 -1.88869e-05 -0.00021388 0.000929233 2.45418e-19 0.000929233)
(0.00096678 -1.82909e-05 -0.00022637 0.00096678 2.40525e-19 0.00096678)
(0.00100269 -1.77131e-05 -0.000238482 0.00100269 2.27223e-19 0.00100269)
(0.00103713 -1.71551e-05 -0.000250232 0.00103713 2.18756e-19 0.00103713)
(0.00107018 -1.66183e-05 -0.000261642 0.00107018 2.15542e-19 0.00107018)
(0.00110198 -1.6103e-05 -0.000272725 0.00110198 2.09109e-19 0.00110198)
(0.00113261 -1.5608e-05 -0.000283503 0.00113261 2.04422e-19 0.00113261)
(0.00116217 -1.51335e-05 -0.000293992 0.00116217 1.9841e-19 0.00116217)
(0.00119072 -1.46792e-05 -0.000304201 0.00119072 1.89489e-19 0.00119072)
(0.00121834 -1.42436e-05 -0.000314151 0.00121834 1.80274e-19 0.00121834)
(0.00124509 -1.38257e-05 -0.000323851 0.00124509 1.72276e-19 0.00124509)
(0.00127103 -1.34249e-05 -0.000333313 0.00127103 1.6967e-19 0.00127103)
(0.0012962 -1.30403e-05 -0.00034255 0.0012962 1.63569e-19 0.0012962)
(0.00132065 -1.26732e-05 -0.000351567 0.00132065 1.54603e-19 0.00132065)
(0.00134443 -1.23159e-05 -0.000360385 0.00134443 1.52114e-19 0.00134443)
(0.00136757 -1.19732e-05 -0.000368998 0.00136757 1.52522e-19 0.00136757)
(0.00139011 -1.16499e-05 -0.000377426 0.00139011 1.44404e-19 0.00139011)
(0.00141207 -1.13359e-05 -0.000385674 0.00141207 1.37838e-19 0.00141207)
(0.00143348 -1.10323e-05 -0.000393747 0.00143348 1.37174e-19 0.00143348)
(0.00145438 -1.07354e-05 -0.000401654 0.00145438 1.275e-19 0.00145438)
(0.00147479 -1.0455e-05 -0.0004094 0.00147479 1.22613e-19 0.00147479)
(0.00149472 -1.0183e-05 -0.000416993 0.00149472 1.23945e-19 0.00149472)
(0.0015142 -9.91961e-06 -0.000424434 0.0015142 1.25345e-19 0.0015142)
(0.00153325 -9.67029e-06 -0.000431734 0.00153325 1.22975e-19 0.00153325)
(0.00155189 -9.42157e-06 -0.000438891 0.00155189 1.15451e-19 0.00155189)
(0.00157014 -9.18311e-06 -0.000445919 0.00157014 1.12083e-19 0.00157014)
(0.00158801 -8.95998e-06 -0.000452814 0.00158801 1.03489e-19 0.00158801)
(0.0016055 -8.73862e-06 -0.000459581 0.0016055 1.02385e-19 0.0016055)
(0.00162265 -8.51923e-06 -0.000466229 0.00162265 1.07107e-19 0.00162265)
(0.00163945 -8.31145e-06 -0.000472758 0.00163945 9.99677e-20 0.00163945)
(0.00165593 -8.10622e-06 -0.000479171 0.00165593 9.56182e-20 0.00165593)
(0.00167209 -7.91304e-06 -0.000485472 0.00167209 9.60633e-20 0.00167209)
(0.00168793 -7.72286e-06 -0.000491667 0.00168793 1.00672e-19 0.00168793)
(0.00170349 -7.53573e-06 -0.000497748 0.00170349 9.96495e-20 0.00170349)
(0.00171875 -7.36128e-06 -0.000503736 0.00171875 9.02476e-20 0.00171875)
(0.00173373 -7.18556e-06 -0.000509615 0.00173373 9.38707e-20 0.00173373)
(0.00174844 -7.01336e-06 -0.000515395 0.00174844 9.2134e-20 0.00174844)
(0.00176288 -6.84952e-06 -0.000521081 0.00176288 8.40875e-20 0.00176288)
(0.00177706 -6.68478e-06 -0.000526673 0.00177706 8.39368e-20 0.00177706)
(0.00179099 -6.52855e-06 -0.000532172 0.00179099 8.18839e-20 0.00179099)
(0.00180468 -6.38102e-06 -0.00053758 0.00180468 7.9971e-20 0.00180468)
(0.00181812 -6.22813e-06 -0.000542902 0.00181812 8.03454e-20 0.00181812)
(0.00183133 -6.08401e-06 -0.000548129 0.00183133 7.40039e-20 0.00183133)
(0.00184431 -5.9441e-06 -0.000553278 0.00184431 7.30303e-20 0.00184431)
(0.00185706 -5.79905e-06 -0.00055834 0.00185706 8.37326e-20 0.00185706)
(0.00186959 -5.66295e-06 -0.000563321 0.00186959 8.51289e-20 0.00186959)
(0.0018819 -5.53589e-06 -0.000568217 0.0018819 7.14394e-20 0.0018819)
(0.001894 -5.40853e-06 -0.000573035 0.001894 6.25372e-20 0.001894)
(0.00190589 -5.27628e-06 -0.000577771 0.00190589 7.43147e-20 0.00190589)
(0.00191757 -5.15312e-06 -0.000582431 0.00191757 7.11735e-20 0.00191757)
(0.00192905 -5.0345e-06 -0.000587006 0.00192905 6.31167e-20 0.00192905)
(0.00194033 -4.91108e-06 -0.000591516 0.00194033 6.7159e-20 0.00194033)
(0.00195141 -4.79686e-06 -0.000595944 0.00195141 6.61146e-20 0.00195141)
(0.00196229 -4.6826e-06 -0.000600296 0.00196229 5.48614e-20 0.00196229)
(0.00197299 -4.5729e-06 -0.000604579 0.00197299 4.25408e-20 0.00197299)
(0.00198349 -4.46325e-06 -0.000608782 0.00198349 5.71262e-20 0.00198349)
(0.0019938 -4.34898e-06 -0.000612918 0.0019938 6.54774e-20 0.0019938)
(0.00200393 -4.24398e-06 -0.00061698 0.00200393 5.18084e-20 0.00200393)
(0.00201387 -4.14365e-06 -0.000620966 0.00201387 4.93666e-20 0.00201387)
(0.00202362 -4.03884e-06 -0.000624881 0.00202362 5.67542e-20 0.00202362)
(0.00203319 -3.93413e-06 -0.000628732 0.00203319 7.07411e-20 0.00203319)
(0.00204259 -3.83869e-06 -0.000632503 0.00204259 6.88651e-20 0.00204259)
(0.0020518 -3.7434e-06 -0.000636206 0.0020518 4.63619e-20 0.0020518)
(0.00206083 -3.64374e-06 -0.00063984 0.00206083 3.99126e-20 0.00206083)
(0.00206968 -3.54879e-06 -0.000643407 0.00206968 5.00265e-20 0.00206968)
(0.00207836 -3.45407e-06 -0.000646902 0.00207836 5.09815e-20 0.00207836)
(0.00208686 -3.35955e-06 -0.000650326 0.00208686 4.4208e-20 0.00208686)
(0.00209518 -3.26978e-06 -0.000653677 0.00209518 3.96571e-20 0.00209518)
(0.00210333 -3.1847e-06 -0.000656961 0.00210333 3.45217e-20 0.00210333)
(0.00211129 -3.09544e-06 -0.000660179 0.00211129 4.11412e-20 0.00211129)
(0.00211909 -3.00197e-06 -0.000663321 0.00211909 3.81648e-20 0.00211909)
(0.0021267 -2.91769e-06 -0.0006664 0.0021267 3.16529e-20 0.0021267)
(0.00213415 -2.82931e-06 -0.000669403 0.00213415 3.54329e-20 0.00213415)
(0.00214141 -2.74561e-06 -0.000672342 0.00214141 3.56985e-20 0.00214141)
(0.0021485 -2.66229e-06 -0.000675208 0.0021485 4.10416e-20 0.0021485)
(0.00215541 -2.57923e-06 -0.000678002 0.00215541 3.74335e-20 0.00215541)
(0.00216215 -2.49659e-06 -0.000680722 0.00216215 3.83212e-20 0.00216215)
(0.0021687 -2.41424e-06 -0.000683374 0.0021687 4.2641e-20 0.0021687)
(0.00217508 -2.33665e-06 -0.00068596 0.00217508 3.57498e-20 0.00217508)
(0.00218128 -2.25076e-06 -0.000688469 0.00218128 3.60369e-20 0.00218128)
(0.0021873 -2.16959e-06 -0.000690902 0.0021873 3.13756e-20 0.0021873)
(0.00219314 -2.09313e-06 -0.000693271 0.00219314 1.7657e-20 0.00219314)
(0.00219879 -2.01707e-06 -0.000695562 0.00219879 1.59833e-20 0.00219879)
(0.00220427 -1.93716e-06 -0.000697774 0.00220427 2.04344e-20 0.00220427)
(0.00220956 -1.85768e-06 -0.000699923 0.00220956 1.98335e-20 0.00220956)
(0.00221466 -1.7829e-06 -0.00070199 0.00221466 2.10986e-20 0.00221466)
(0.00221958 -1.70436e-06 -0.000703984 0.00221958 2.96395e-20 0.00221958)
(0.00222431 -1.62629e-06 -0.000705905 0.00222431 2.17903e-20 0.00222431)
(0.00222885 -1.55289e-06 -0.000707743 0.00222885 8.87938e-21 0.00222885)
(0.00223319 -1.47582e-06 -0.000709505 0.00223319 -2.36715e-22 0.00223319)
(0.00223734 -1.39925e-06 -0.000711192 0.00223734 2.37445e-22 0.00223734)
(0.0022413 -1.32322e-06 -0.000712795 0.0022413 6.77979e-21 0.0022413)
(0.00224506 -1.24772e-06 -0.000714321 0.00224506 8.32107e-21 0.00224506)
(0.00224862 -1.17278e-06 -0.000715771 0.00224862 1.24565e-20 0.00224862)
(0.00225198 -1.09838e-06 -0.000717134 0.00225198 3.37101e-21 0.00225198)
(0.00225514 -1.02458e-06 -0.000718419 0.00225514 -7.18343e-21 0.00225514)
(0.00225809 -9.4731e-07 -0.00071961 0.00225809 -1.77753e-20 0.00225809)
(0.00226083 -8.70673e-07 -0.000720723 0.00226083 -2.15129e-20 0.00226083)
(0.00226336 -7.94674e-07 -0.000721756 0.00226336 -1.7944e-20 0.00226336)
(0.00226567 -7.23287e-07 -0.000722693 0.00226567 -2.01112e-20 0.00226567)
(0.00226777 -6.48601e-07 -0.00072355 0.00226777 -1.95783e-20 0.00226777)
(0.00226965 -5.70617e-07 -0.000724312 0.00226965 -2.41947e-20 0.00226965)
(0.00227131 -4.9728e-07 -0.000724985 0.00227131 -3.54181e-20 0.00227131)
(0.00227274 -4.20751e-07 -0.000725569 0.00227274 -2.69426e-20 0.00227274)
(0.00227394 -3.44942e-07 -0.000726056 0.00227394 -2.21899e-20 0.00227394)
(0.00227491 -2.69908e-07 -0.000726446 0.00227491 -1.78142e-20 0.00227491)
(0.00227564 -1.91794e-07 -0.000726747 0.00227564 -2.37047e-21 0.00227564)
(0.00227613 -1.14496e-07 -0.000726942 0.00227613 -1.1197e-20 0.00227613)
(0.00227638 -3.80263e-08 -0.000727047 0.00227638 -1.00829e-20 0.00227638)
(0.000517426 -3.08622e-05 -4.01086e-06 0.000517426 1.77694e-18 0.000517426)
(0.000337777 -2.54962e-05 -1.01771e-05 0.000337777 -3.87979e-19 0.000337777)
(0.000286689 -2.82094e-05 -1.94137e-05 0.000286689 -1.02954e-18 0.000286689)
(0.000298647 -3.45163e-05 -3.45163e-05 0.000298647 -1.26664e-18 0.000298647)
(0.000342882 -4.12366e-05 -5.49862e-05 0.000342882 -1.22581e-18 0.000342882)
(0.000403165 -4.66887e-05 -7.89551e-05 0.000403165 -1.00256e-18 0.000403165)
(0.000470405 -5.05055e-05 -0.000104858 0.000470405 -7.21497e-19 0.000470405)
(0.000539487 -5.28355e-05 -0.000131577 0.000539487 -4.65897e-19 0.000539487)
(0.000607627 -5.3973e-05 -0.000158342 0.000607627 -2.59461e-19 0.000607627)
(0.000673413 -5.42206e-05 -0.000184668 0.000673413 -1.08363e-19 0.000673413)
(0.000736207 -5.38361e-05 -0.000210277 0.000736207 -6.98134e-21 0.000736207)
(0.000795833 -5.30205e-05 -0.000235027 0.000795833 6.53944e-20 0.000795833)
(0.00085232 -5.19232e-05 -0.000258867 0.00085232 1.17192e-19 0.00085232)
(0.00090584 -5.06508e-05 -0.000281794 0.00090584 1.52335e-19 0.00090584)
(0.000956593 -4.92771e-05 -0.00030383 0.000956593 1.68382e-19 0.000956593)
(0.0010048 -4.78548e-05 -0.000325013 0.0010048 1.77923e-19 0.0010048)
(0.00105069 -4.64165e-05 -0.000345384 0.00105069 1.91682e-19 0.00105069)
(0.00109445 -4.49923e-05 -0.000365001 0.00109445 1.91712e-19 0.00109445)
(0.00113627 -4.35908e-05 -0.000383908 0.00113627 1.82426e-19 0.00113627)
(0.00117632 -4.22223e-05 -0.000402146 0.00117632 1.82551e-19 0.00117632)
(0.00121474 -4.08943e-05 -0.000419755 0.00121474 1.89265e-19 0.00121474)
(0.00125166 -3.96094e-05 -0.00043677 0.00125166 1.85843e-19 0.00125166)
(0.00128721 -3.83807e-05 -0.000453235 0.00128721 1.77626e-19 0.00128721)
(0.00132147 -3.71857e-05 -0.000469181 0.00132147 1.74891e-19 0.00132147)
(0.00135455 -3.60382e-05 -0.00048463 0.00135455 1.67179e-19 0.00135455)
(0.00138653 -3.49422e-05 -0.000499622 0.00138653 1.52516e-19 0.00138653)
(0.00141749 -3.38821e-05 -0.000514184 0.00141749 1.47279e-19 0.00141749)