/*--------------------------------*- C++ -*----------------------------------*\
| =========                 |                                                 |
| \\      /  F ield         | OpenFOAM: The Open Source CFD Toolbox           |
|  \\    /   O peration     | Version:  2306                                  |
|   \\  /    A nd           | Website:  www.openfoam.com                      |
|    \\/     M anipulation  |                                                 |
\*---------------------------------------------------------------------------*/
// * * * * * * * * * * * * * * * * * * * * * * * * * * * * * * * * * * * * * //
FoamFile
{
    version         2;
    format          ascii;
    arch            "LSB;label=32;scalar=64";
    class           volSymmTensorField;
    location        "0";
    object          S;
}

dimensions      [ 0 0 -1 0 0 0 0 ];

internalField   nonuniform List<symmTensor> 
15625
(
(0 0.159165 0.159165 -2.89978e-13 -1.7734e-13 -2.90014e-13)
(0 0.132754 0.420162 2.80361e-14 -1.02755e-13 -1.88103e-13)
(0 0.122563 0.66188 1.27512e-13 -6.57804e-14 -8.57826e-14)
(0 0.11565 0.889889 5.70167e-14 -5.12191e-14 -4.59413e-14)
(0 0.109676 1.10604 2.54146e-14 -3.76513e-14 -2.60148e-14)
(0 0.103791 1.31062 1.37496e-14 -2.83923e-14 -1.48152e-14)
(0 0.0977914 1.50345 8.11114e-15 -2.23016e-14 -8.72698e-15)
(-1.65666e-17 0.0917567 1.6845 4.98701e-15 -1.81639e-14 -5.4618e-15)
(0 0.0858461 1.854 3.26332e-15 -1.52472e-14 -3.63883e-15)
(0 0.0801951 2.01248 2.29955e-15 -1.31098e-14 -2.56805e-15)
(1.62911e-17 0.0749072 2.16068 1.71859e-15 -1.14754e-14 -1.92374e-15)
(0 0.0700277 2.2994 1.32729e-15 -1.01827e-14 -1.49803e-15)
(0 0.0655629 2.42948 1.05536e-15 -9.14623e-15 -1.1964e-15)
(0 0.0615023 2.55172 8.59992e-16 -8.29725e-15 -9.85286e-16)
(6.37236e-17 0.0578185 2.66687 7.16258e-16 -7.59262e-15 -7.8936e-16)
(-3.16842e-17 0.0544726 2.7756 6.07481e-16 -6.99368e-15 -6.80462e-16)
(3.15076e-17 0.0514302 2.87851 5.1691e-16 -6.48218e-15 -5.54717e-16)
(0 0.048658 2.97614 4.56004e-16 -6.04398e-15 -5.04452e-16)
(3.11573e-17 0.0461272 3.06896 4.09749e-16 -5.63343e-15 -4.62217e-16)
(0 0.0438137 3.15739 3.46596e-16 -5.26971e-15 -3.81631e-16)
(0 0.0416859 3.24178 2.85575e-16 -4.97768e-15 -3.20422e-16)
(0 0.0397249 3.32249 2.47402e-16 -4.72698e-15 -2.96614e-16)
(0 0.037916 3.39977 2.26752e-16 -4.49361e-15 -2.60093e-16)
(-3.02985e-17 0.0362372 3.4739 2.14181e-16 -4.29659e-15 -2.34591e-16)
(-3.01296e-17 0.0346745 3.5451 1.99613e-16 -4.11371e-15 -2.28678e-16)
(2.99617e-17 0.0332222 3.61357 1.76349e-16 -3.92397e-15 -2.42063e-16)
(5.95893e-17 0.031867 3.6795 1.56919e-16 -3.75993e-15 -2.18197e-16)
(0 0.0305995 3.74305 1.50294e-16 -3.61392e-15 -1.92068e-16)
(-5.89268e-17 0.0294108 3.80438 1.40852e-16 -3.47297e-15 -1.65063e-16)
(0 0.0282918 3.86362 1.26914e-16 -3.34834e-15 -1.41347e-16)
(-2.91359e-17 0.0272379 3.92089 1.22229e-16 -3.22653e-15 -1.24693e-16)
(0 0.0262441 3.9763 1.21889e-16 -3.0898e-15 -1.258e-16)
(0 0.0253058 4.02996 1.11192e-16 -2.94604e-15 -1.41197e-16)
(0 0.0244184 4.08196 1.03851e-16 -2.82357e-15 -1.03028e-16)
(-5.69832e-17 0.0235774 4.13239 1.01745e-16 -2.70915e-15 -1.04871e-16)
(0 0.0227784 4.18132 8.30657e-17 -2.60247e-15 -9.38891e-17)
(0 0.0220207 4.22884 6.65106e-17 -2.52362e-15 -7.2927e-17)
(0 0.0212965 4.27501 6.77102e-17 -2.45168e-15 -9.77059e-17)
(0 0.0206089 4.31988 6.7882e-17 -2.38347e-15 -6.64072e-17)
(0 0.0199572 4.36353 6.18541e-17 -2.32747e-15 -7.29353e-17)
(0 0.0193303 4.406 7.3008e-17 -2.28108e-15 -6.60689e-17)
(0 0.0187312 4.44735 8.9146e-17 -2.1991e-15 -7.41539e-17)
(0 0.0181596 4.48761 7.42796e-17 -2.09521e-15 -6.98952e-17)
(0 0.0176115 4.52685 5.37506e-17 -2.0428e-15 -3.53493e-17)
(-5.38853e-17 0.0170866 4.5651 5.57448e-17 -1.99053e-15 -7.17165e-17)
(0 0.016581 4.60238 5.47676e-17 -1.93198e-15 -6.0852e-17)
(0 0.0160945 4.63876 4.01815e-17 -1.8973e-15 -6.37149e-17)
(5.29892e-17 0.0156302 4.67424 3.35516e-17 -1.85802e-15 -6.28978e-17)
(5.26938e-17 0.0151844 4.70888 4.96446e-17 -1.8307e-15 -5.33304e-17)
(0 0.0147534 4.7427 7.83551e-17 -1.77539e-15 -8.50595e-17)
(-5.2108e-17 0.014337 4.77572 7.54662e-17 -1.69375e-15 -7.94749e-17)
(0 0.0139349 4.80798 4.33619e-17 -1.63628e-15 -6.88317e-17)
(5.15287e-17 0.0135503 4.8395 3.59665e-17 -1.60834e-15 -9.84336e-17)
(5.12415e-17 0.0131763 4.87029 4.83515e-17 -1.55356e-15 -7.5772e-17)
(0 0.012816 4.90039 5.65804e-17 -1.4875e-15 -5.65816e-17)
(0 0.0124693 4.92982 6.24382e-17 -1.42886e-15 -7.28987e-17)
(0 0.0121294 4.9586 5.76562e-17 -1.36101e-15 -6.58318e-17)
(0 0.0118027 4.98673 4.95738e-17 -1.31322e-15 -6.15446e-17)
(0 0.0114858 5.01425 4.60521e-17 -1.26975e-15 -7.72953e-17)
(0 0.0111786 5.04117 2.82499e-17 -1.21796e-15 -5.23896e-17)
(0 0.010884 5.0675 1.33809e-17 -1.20937e-15 -3.67957e-17)
(0 0.0105957 5.09327 3.2018e-17 -1.20229e-15 -6.60171e-17)
(0 0.0103102 5.11847 5.18499e-17 -1.14107e-15 -1.10376e-16)
(0 0.0100402 5.14314 4.11246e-17 -1.09098e-15 -5.8017e-17)
(0 0.00977616 5.16728 1.87639e-17 -1.08861e-15 -2.6749e-17)
(9.5834e-17 0.00951468 5.1909 1.71639e-17 -1.10709e-15 -4.39515e-17)
(9.52998e-17 0.00926517 5.21401 3.71814e-17 -1.09233e-15 -5.98709e-17)
(0 0.00902126 5.23663 4.79538e-17 -1.04232e-15 -6.64956e-17)
(0 0.00878285 5.25877 3.37445e-17 -9.8709e-16 -3.58596e-17)
(0 0.00855295 5.28043 1.3774e-17 -9.72103e-16 -2.26926e-17)
(0 0.00832537 5.30163 1.28083e-17 -9.66245e-16 2.10859e-17)
(0 0.00810003 5.32237 2.28974e-17 -9.57436e-16 6.04671e-17)
(0 0.00788599 5.34266 1.12645e-17 -9.53785e-16 -2.29506e-17)
(4.58214e-17 0.00767412 5.36251 -2.06093e-17 -9.61366e-16 1.02223e-18)
(0 0.0074673 5.38192 -1.08992e-17 -1.01836e-15 4.12699e-17)
(-4.5312e-17 0.00726852 5.40092 3.38097e-17 -1.02397e-15 1.69017e-17)
(-9.01188e-17 0.00706876 5.41949 5.75471e-17 -9.68501e-16 -1.00158e-17)
(0 0.00687393 5.43765 5.5921e-17 -9.09928e-16 -6.31678e-17)
(4.45584e-17 0.00668397 5.4554 2.14086e-17 -8.46367e-16 -6.29034e-17)
(4.43101e-17 0.00649881 5.47276 -4.29728e-18 -8.56306e-16 2.6244e-17)
(0 0.00631552 5.48971 3.57485e-18 -9.04264e-16 3.94854e-17)
(0 0.00613406 5.50627 2.76377e-17 -9.26136e-16 -1.11665e-17)
(0 0.00596013 5.52244 5.30394e-17 -8.78076e-16 -4.83278e-17)
(0 0.00578796 5.53824 2.78269e-17 -8.1132e-16 -4.48275e-17)
(0 0.00562032 5.55365 -8.10316e-18 -8.16868e-16 -5.50165e-17)
(4.28486e-17 0.00545161 5.56868 2.28522e-17 -7.86329e-16 -9.33701e-17)
(0 0.00528456 5.58334 7.28586e-17 -6.84315e-16 -9.68402e-17)
(0 0.00512754 5.59764 7.13748e-17 -5.76404e-16 -9.21763e-17)
(0 0.00496661 5.61156 4.19111e-17 -4.93128e-16 -6.54417e-17)
(0 0.00480728 5.62512 1.50555e-17 -4.56828e-16 -2.57135e-17)
(0 0.00465505 5.63832 3.73591e-18 -4.40938e-16 -2.49215e-17)
(0 0.00450165 5.65116 1.26653e-17 -4.23656e-16 -4.22701e-17)
(0 0.0043525 5.66363 7.67346e-18 -4.24775e-16 -3.74499e-17)
(0 0.0042049 5.67576 -5.2655e-18 -4.53824e-16 -5.10817e-17)
(4.07462e-17 0.00405346 5.68752 2.16464e-17 -4.41722e-16 -1.1305e-16)
(-4.05191e-17 0.00390887 5.69893 7.23539e-17 -3.61413e-16 -6.66629e-17)
(-4.02932e-17 0.00376843 5.70998 6.49518e-17 -2.29601e-16 -9.76616e-17)
(8.01373e-17 0.00362418 5.72069 1.47327e-17 -1.77885e-16 -1.70639e-17)
(0 0.00348401 5.73103 -2.17533e-19 -2.22156e-16 1.68458e-17)
(0 0.00334532 5.74102 1.54233e-17 -2.43128e-16 1.95603e-17)
(0 0.00320547 5.75066 3.40205e-17 -2.21064e-16 -9.14129e-18)
(-7.83653e-17 0.00306964 5.75994 3.88553e-17 -1.57357e-16 -4.34743e-17)
(0 0.00293523 5.76887 2.2049e-18 -1.30251e-16 -4.04234e-18)
(0 0.00279969 5.77744 -4.19155e-17 -2.36255e-16 5.45122e-18)
(0 0.00266304 5.78565 -1.83665e-17 -3.63852e-16 -7.3935e-17)
(0 0.00253034 5.7935 -8.68538e-18 -3.36381e-16 -1.02752e-16)
(0 0.00240152 5.801 -4.71874e-17 -4.01166e-16 9.45432e-17)
(0 0.00226912 5.80814 -3.08543e-17 -5.34891e-16 1.62882e-17)
(0 0.00213564 5.8149 1.24511e-18 -5.90759e-16 5.91931e-18)
(0 0.00200603 5.8213 -9.42738e-18 -6.23882e-16 -3.92325e-17)
(7.45203e-17 0.0018778 5.82733 -6.13642e-18 -6.92525e-16 -7.13186e-17)
(0 0.00174852 5.83299 3.58344e-17 -7.09756e-16 -4.95065e-17)
(0 0.0016182 5.83828 4.30389e-17 -6.53693e-16 -4.77304e-18)
(0 0.00148929 5.84318 1.21792e-17 -6.53684e-16 2.22818e-17)
(0 0.00135938 5.84771 -8.3181e-18 -6.68376e-16 -5.02932e-17)
(1.44933e-16 0.00123086 5.85184 -3.53073e-18 -6.78613e-16 -6.08365e-17)
(0 0.00110374 5.85559 4.85886e-17 -6.4028e-16 -6.11272e-17)
(-7.16607e-17 0.000973317 5.85894 8.2482e-17 -5.0178e-16 -7.74981e-17)
(7.12613e-17 0.000844297 5.86189 5.4883e-17 -3.5702e-16 -5.07604e-17)
(0 0.000716699 5.86444 2.5312e-17 -2.73422e-16 -4.91169e-17)
(0 0.000588184 5.86658 1.17923e-17 -1.92797e-16 -4.68297e-17)
(-7.00762e-17 0.000458793 5.86831 -1.19709e-17 -1.14755e-16 4.70124e-17)
(0 0.000326265 5.86961 -1.02188e-17 -1.02703e-16 -1.79566e-17)
(0 0.000195189 5.87048 1.0455e-17 -3.17166e-17 -9.92826e-17)
(0 6.55758e-05 5.87092 -1.89809e-17 4.06108e-17 4.07465e-17)
(0 0.420162 0.132754 -1.88124e-13 -1.02703e-13 2.79889e-14)
(0 0.36787 0.36787 -3.56299e-14 1.07202e-13 -3.55203e-14)
(0 0.342594 0.592633 5.54914e-14 5.08341e-14 -5.42035e-14)
(0 0.321735 0.806026 4.41659e-14 1.22798e-14 -4.16789e-14)
(0 0.302322 1.00742 2.96007e-14 -1.64917e-15 -2.86496e-14)
(3.3319e-17 0.2832 1.19608 2.02638e-14 -7.00466e-15 -1.93924e-14)
(0 0.264251 1.37166 1.40508e-14 -8.85673e-15 -1.32181e-14)
(-3.29486e-17 0.245795 1.53441 9.79806e-15 -9.03743e-15 -9.20217e-15)
(1.3106e-16 0.228225 1.68504 6.99578e-15 -8.51597e-15 -6.60146e-15)
(0 0.211834 1.82451 5.17855e-15 -7.80695e-15 -4.89817e-15)
(-1.29602e-16 0.196778 1.95387 3.97737e-15 -7.09153e-15 -3.76031e-15)
(6.444e-17 0.183084 2.07413 3.13958e-15 -6.41661e-15 -2.94822e-15)
(0 0.170701 2.18627 2.52096e-15 -5.82687e-15 -2.38315e-15)
(0 0.15954 2.29114 2.06754e-15 -5.29296e-15 -1.96737e-15)
(0 0.149483 2.3895 1.72213e-15 -4.8541e-15 -1.64193e-15)
(-6.30152e-17 0.140404 2.48202 1.4424e-15 -4.48464e-15 -1.37393e-15)
(0 0.132193 2.56929 1.23551e-15 -4.16204e-15 -1.15845e-15)
(0 0.12475 2.65181 1.10299e-15 -3.89132e-15 -1.02864e-15)
(-1.23934e-16 0.117977 2.73003 9.92034e-16 -3.59058e-15 -9.09737e-16)
(0 0.111796 2.80434 8.45918e-16 -3.32719e-15 -7.58624e-16)
(0 0.106139 2.87506 6.98046e-16 -3.13728e-15 -6.66216e-16)
(6.09367e-17 0.100939 2.94251 6.04983e-16 -2.96693e-15 -5.86746e-16)
(0 0.0961484 3.00694 5.30971e-16 -2.81041e-15 -5.34392e-16)
(1.20519e-16 0.0917216 3.06858 4.70334e-16 -2.68123e-15 -5.1998e-16)
(0 0.0876133 3.12765 4.60119e-16 -2.55844e-15 -4.95234e-16)
(0 0.083799 3.18432 4.33566e-16 -2.41307e-15 -4.61068e-16)
(0 0.080243 3.23877 3.78273e-16 -2.27174e-15 -4.13233e-16)
(0 0.0769217 3.29113 3.39459e-16 -2.16152e-15 -3.60844e-16)
(0 0.0738163 3.34155 3.19294e-16 -2.0686e-15 -3.57817e-16)
(0 0.0709042 3.39014 3.11583e-16 -1.97097e-15 -3.23721e-16)
(0 0.0681673 3.43705 3.13741e-16 -1.88741e-15 -2.74948e-16)
(0 0.0655913 3.48229 3.33342e-16 -1.82669e-15 -2.66095e-16)
(0 0.0631589 3.52604 3.33515e-16 -1.70974e-15 -2.84311e-16)
(0 0.0608604 3.56836 2.98877e-16 -1.59538e-15 -2.39831e-16)
(-1.13331e-16 0.0586862 3.60932 2.62961e-16 -1.53787e-15 -2.27553e-16)
(0 0.0566308 3.649 2.25336e-16 -1.45657e-15 -2.20735e-16)
(0 0.0546813 3.6874 1.88118e-16 -1.40308e-15 -1.46622e-16)
(-2.22893e-16 0.0528215 3.7247 1.60813e-16 -1.34376e-15 -1.20116e-16)
(0 0.0510573 3.76084 1.28458e-16 -1.29245e-15 -9.55649e-17)
(0 0.04938 3.79597 1.00613e-16 -1.26673e-15 -1.1838e-16)
(0 0.0477776 3.83008 1.33453e-16 -1.224e-15 -1.24527e-16)
(-1.08982e-16 0.0462453 3.86321 2.02523e-16 -1.18109e-15 -1.19716e-16)
(0 0.0447856 3.89542 1.80188e-16 -1.09869e-15 -1.2497e-16)
(0 0.0433904 3.9268 1.13985e-16 -1.07017e-15 -5.69185e-17)
(0 0.0420482 3.95729 1.09846e-16 -1.06392e-15 -7.22767e-17)
(-1.06573e-16 0.0407687 3.98697 9.76757e-17 -1.0079e-15 -1.01095e-16)
(1.05978e-16 0.0395406 4.01588 6.87906e-17 -9.81297e-16 -5.11458e-17)
(0 0.038356 4.04401 6.49562e-17 -9.68821e-16 -3.81359e-17)
(0 0.0372248 4.07147 8.62467e-17 -9.60116e-16 -3.47399e-17)
(0 0.036136 4.09818 1.26013e-16 -9.33957e-16 -8.57968e-17)
(0 0.0350854 4.12426 1.30067e-16 -8.79774e-16 -9.12614e-17)
(1.03057e-16 0.0340759 4.1497 8.65932e-17 -8.7079e-16 -6.29572e-17)
(0 0.0331001 4.1745 8.39464e-17 -8.37966e-16 -1.3247e-16)
(0 0.032161 4.19869 1.32383e-16 -7.80934e-16 -1.09256e-16)
(0 0.0312548 4.22232 1.35269e-16 -7.5535e-16 -1.15243e-16)
(1.00779e-16 0.0303808 4.24532 1.17617e-16 -7.30375e-16 -8.97837e-17)
(0 0.0295354 4.26785 1.12612e-16 -6.94074e-16 -9.34998e-17)
(0 0.0287148 4.28983 9.1818e-17 -6.74915e-16 -7.90078e-17)
(1.98205e-16 0.0279254 4.31127 8.5993e-17 -6.3408e-16 -9.64625e-17)
(9.85503e-17 0.0271568 4.33225 5.40253e-17 -5.95902e-16 -2.55216e-17)
(9.80009e-17 0.026412 4.35273 2.07319e-17 -6.26974e-16 -3.71246e-17)
(0 0.0256939 4.37269 6.16907e-17 -6.3233e-16 -9.35756e-17)
(9.69114e-17 0.0249958 4.39223 8.30399e-17 -5.73214e-16 -1.20792e-16)
(0 0.0243174 4.41134 3.59273e-17 -5.30436e-16 -6.47983e-17)
(0 0.0236583 4.43002 -2.27982e-17 -5.475e-16 -2.96015e-17)
(0 0.0230184 4.44822 -1.57575e-17 -5.77398e-16 -1.21933e-16)
(0 0.0223973 4.46606 4.6711e-17 -5.67343e-16 -7.58538e-17)
(0 0.0217918 4.48347 8.48961e-17 -5.28883e-16 -8.37093e-17)
(0 0.0212016 4.50047 6.25311e-17 -5.03692e-16 -9.60205e-17)
(0 0.0206265 4.51712 2.22416e-17 -4.73281e-16 -1.03528e-16)
(0 0.0200663 4.53336 1.04043e-17 -4.42625e-16 -5.332e-18)
(0 0.0195208 4.54928 -6.78673e-18 -5.13326e-16 9.7363e-17)
(0 0.0189867 4.5648 -2.8118e-17 -5.48881e-16 3.05007e-17)
(1.82264e-16 0.018467 4.57994 -6.61654e-17 -4.93459e-16 3.86023e-17)
(0 0.0179615 4.59477 -5.52575e-17 -5.15916e-16 9.40968e-17)
(0 0.017464 4.60926 4.35418e-17 -5.54005e-16 1.05872e-16)
(0 0.0169774 4.62338 9.21321e-17 -5.46832e-16 8.50283e-17)
(0 0.0165045 4.63717 7.77879e-17 -5.14249e-16 -4.34757e-17)
(0 0.0160421 4.65068 2.72998e-17 -4.5014e-16 -6.24519e-17)
(0 0.0155873 4.66386 -5.34273e-17 -4.37902e-16 -7.04104e-18)
(0 0.0151399 4.67669 -7.52953e-17 -5.12873e-16 1.58065e-17)
(0 0.0147028 4.68924 3.65894e-18 -5.36596e-16 -4.93966e-17)
(0 0.0142758 4.70146 8.78979e-17 -5.03589e-16 -7.94959e-17)
(0 0.0138559 4.71338 6.13664e-17 -4.73669e-16 -9.14483e-17)
(0 0.0134403 4.72501 4.1107e-17 -4.51961e-16 -6.39312e-17)
(0 0.0130345 4.73638 1.27763e-16 -4.26623e-16 -2.46064e-17)
(0 0.0126383 4.74742 1.82904e-16 -3.61796e-16 -1.24197e-16)
(0 0.0122462 4.75816 1.59049e-16 -3.07471e-16 -5.08974e-17)
(0 0.0118608 4.76864 1.10413e-16 -2.53916e-16 -5.83022e-17)
(0 0.0114794 4.77879 5.82808e-17 -2.27047e-16 -4.02641e-17)
(0 0.0111045 4.78872 3.01682e-17 -2.41751e-16 -2.6634e-17)
(0 0.0107389 4.79831 1.8218e-18 -2.29737e-16 -8.86475e-17)
(1.63899e-16 0.010377 4.8077 -3.60532e-17 -2.46019e-16 -5.78459e-17)
(0 0.0100161 4.81673 -4.25437e-18 -2.84586e-16 -1.26407e-16)
(0 0.00966163 4.82556 8.95111e-17 -2.32598e-16 -1.42133e-16)
(0 0.00931343 4.83409 1.59754e-16 -1.77171e-16 -1.27492e-16)
(0 0.0089688 4.84232 1.27141e-16 -1.26216e-16 -1.44547e-16)
(1.59381e-16 0.00862774 4.85029 -4.89835e-18 -8.15237e-17 -1.26098e-16)
(0 0.00829019 4.85801 -6.08966e-17 -1.28345e-16 -3.59011e-17)
(0 0.00795615 4.86547 6.21062e-18 -1.58485e-16 -1.05222e-17)
(0 0.00762298 4.87263 7.09788e-17 -1.38377e-16 2.00468e-17)
(0 0.00729585 4.87954 4.86686e-17 -9.60643e-17 6.68131e-17)
(0 0.00697213 4.88619 -8.89198e-17 -1.02432e-16 5.99605e-17)
(3.08248e-16 0.00664926 4.89255 -2.0626e-16 -1.79827e-16 -3.27936e-17)
(3.0653e-16 0.00632977 4.89865 -1.15387e-16 -2.48445e-16 1.31911e-17)
(1.52411e-16 0.00601363 4.9045 -5.55045e-17 -1.84761e-16 2.55485e-17)
(0 0.00569834 4.91005 -1.54945e-16 -2.25066e-16 1.25322e-16)
(0 0.00538388 4.91534 -1.64088e-16 -3.44099e-16 8.64604e-17)
(0 0.0050703 4.92034 -1.0151e-16 -3.84445e-16 8.34593e-17)
(0 0.00476003 4.92509 -1.04261e-16 -4.26827e-16 1.09588e-17)
(0 0.00445308 4.92955 -9.3355e-17 -4.38664e-16 -6.34543e-17)
(0 0.00414455 4.93375 -2.53691e-18 -4.30353e-16 -9.9793e-17)
(0 0.0038369 4.93766 1.88899e-17 -4.22474e-16 -9.97972e-17)
(1.45745e-16 0.00353017 4.94128 -2.30896e-17 -4.58292e-16 -3.98346e-17)
(1.44933e-16 0.00322434 4.94461 -2.12445e-17 -4.76167e-16 -4.15274e-17)
(0 0.00291945 4.94765 3.79675e-17 -4.41132e-16 -9.741e-17)
(0 0.00261314 4.95045 1.37579e-16 -3.95293e-16 -1.18294e-16)
(0 0.0023078 4.95291 2.03807e-16 -3.39712e-16 -1.68644e-16)
(0 0.00200347 4.95509 1.90493e-16 -2.56857e-16 -1.36943e-16)
(-1.40938e-16 0.00169781 4.95698 1.54322e-16 -1.87956e-16 -3.51324e-17)
(0 0.00139089 4.95855 1.4383e-16 -1.08121e-16 -8.37797e-17)
(0 0.00108275 4.95983 1.04855e-16 -8.85378e-17 -8.98875e-18)
(0 0.000775717 4.96079 9.76345e-17 -1.0769e-16 -7.21221e-17)
(-1.37822e-16 0.000467551 4.96143 1.24129e-16 -1.59571e-18 -1.28316e-16)
(0 0.000156025 4.96175 1.49733e-17 5.06959e-17 2.66667e-17)
(0 0.66188 0.122563 -8.57026e-14 -6.57541e-14 1.27429e-13)
(0 0.592633 0.342594 -5.41701e-14 5.0862e-14 5.54669e-14)
(-3.36936e-17 0.558297 0.558297 4.13901e-16 4.62335e-14 2.3607e-16)
(6.70115e-17 0.525856 0.764105 1.61523e-14 2.79973e-14 -1.61564e-14)
(0 0.493273 0.95678 1.84061e-14 1.48387e-14 -1.86014e-14)
(-6.62665e-17 0.460001 1.13454 1.64447e-14 6.43774e-15 -1.65779e-14)
(-6.58971e-17 0.426821 1.29706 1.3393e-14 1.40278e-15 -1.34992e-14)
(0 0.394824 1.44515 1.05184e-14 -1.33527e-15 -1.05983e-14)
(0 0.36483 1.58025 8.18766e-15 -2.68449e-15 -8.26566e-15)
(6.48012e-17 0.337272 1.70391 6.40801e-15 -3.28407e-15 -6.52599e-15)
(0 0.312287 1.8176 5.111e-15 -3.45979e-15 -5.19735e-15)
(0 0.289801 1.92262 4.1419e-15 -3.44464e-15 -4.1912e-15)
(0 0.269626 2.02007 3.41032e-15 -3.35237e-15 -3.44955e-15)
(1.26737e-16 0.251543 2.11087 2.82953e-15 -3.18565e-15 -2.88547e-15)
(1.2603e-16 0.235317 2.19579 2.34641e-15 -3.00726e-15 -2.48736e-15)
(0 0.220728 2.27548 1.99417e-15 -2.82681e-15 -2.10023e-15)
(1.24629e-16 0.207566 2.35052 1.71571e-15 -2.69712e-15 -1.83514e-15)
(0 0.195646 2.42133 1.53309e-15 -2.57275e-15 -1.60369e-15)
(0 0.184824 2.48839 1.39619e-15 -2.37091e-15 -1.38794e-15)
(0 0.174955 2.55197 1.18622e-15 -2.23097e-15 -1.19555e-15)
(-1.21873e-16 0.16593 2.61244 9.8825e-16 -2.15214e-15 -1.06987e-15)
(0 0.157649 2.66999 8.60599e-16 -2.04719e-15 -9.76845e-16)
(0 0.150018 2.72491 7.62391e-16 -1.96482e-15 -8.88658e-16)
(0 0.14297 2.77742 6.98383e-16 -1.87443e-15 -8.08318e-16)
(0 0.136447 2.82762 6.80122e-16 -1.76135e-15 -7.54342e-16)
(0 0.130387 2.87577 6.4038e-16 -1.65024e-15 -6.63986e-16)
(-1.17854e-16 0.124742 2.92195 5.64162e-16 -1.55436e-15 -5.82235e-16)
(2.34393e-16 0.119474 2.96631 5.05857e-16 -1.50998e-15 -5.41956e-16)
(0 0.114547 3.00897 4.7281e-16 -1.4368e-15 -5.28916e-16)
(0 0.109946 3.05001 4.43504e-16 -1.34125e-15 -4.98237e-16)
(0 0.105584 3.08959 4.103e-16 -1.30408e-15 -4.86852e-16)
(0 0.101487 3.1277 4.34326e-16 -1.29281e-15 -4.82458e-16)
(2.27933e-16 0.0976783 3.16452 4.63973e-16 -1.21076e-15 -4.82522e-16)
(2.26662e-16 0.0940584 3.20008 3.92473e-16 -1.1437e-15 -4.10069e-16)
(0 0.0906251 3.23444 3.37167e-16 -1.12682e-15 -3.70957e-16)
(0 0.0873385 3.26769 3.11819e-16 -1.03729e-15 -3.59621e-16)
(0 0.0842697 3.29984 2.61605e-16 -9.88289e-16 -3.05375e-16)
(-2.21651e-16 0.081343 3.33101 2.29333e-16 -9.90092e-16 -1.77855e-16)
(0 0.0785552 3.36117 2.02064e-16 -9.92628e-16 -2.02216e-16)
(0 0.0759415 3.39043 1.9211e-16 -9.65734e-16 -2.19653e-16)
(0 0.0733903 3.41879 2.12305e-16 -8.99317e-16 -2.42645e-16)
(0 0.0709728 3.44634 2.68203e-16 -8.66246e-16 -2.21647e-16)
(2.15541e-16 0.0687226 3.47306 2.42375e-16 -7.93752e-16 -2.23322e-16)
(0 0.066531 3.499 1.46e-16 -7.79505e-16 -1.70911e-16)
(0 0.0643967 3.52421 1.55547e-16 -8.09622e-16 -1.68421e-16)
(0 0.0623894 3.54873 1.62313e-16 -7.50401e-16 -1.33042e-16)
(0 0.0604374 3.57255 1.0527e-16 -7.12899e-16 -1.35806e-16)
(0 0.058609 3.59572 8.21589e-17 -7.11506e-16 -8.58198e-17)
(0 0.0568341 3.61828 1.1509e-16 -7.40863e-16 -8.33484e-17)
(0 0.055111 3.64018 1.82847e-16 -7.28766e-16 -1.22645e-16)
(0 0.0535079 3.66157 1.72308e-16 -6.55995e-16 -1.3117e-16)
(0 0.051921 3.68235 1.18577e-16 -6.78286e-16 -1.42645e-16)
(0 0.0503838 3.70258 1.40782e-16 -6.61888e-16 -1.66252e-16)
(0 0.0489291 3.7223 1.65288e-16 -6.00673e-16 -1.8606e-16)
(0 0.0474892 3.74153 1.52712e-16 -5.96295e-16 -1.96629e-16)
(0 0.0461299 3.76026 1.54635e-16 -5.78581e-16 -1.59933e-16)
(0 0.0448506 3.77851 1.39277e-16 -5.62095e-16 -9.68663e-17)
(0 0.0435512 3.79633 1.29931e-16 -5.61828e-16 -9.44741e-17)
(0 0.0423299 3.81364 1.39587e-16 -5.14887e-16 -6.18477e-17)
(0 0.0411536 3.83058 5.52135e-17 -5.0562e-16 -6.88556e-17)
(0 0.0399567 3.84709 7.7414e-18 -5.76936e-16 -5.68442e-17)
(0 0.0388359 3.86319 1.01367e-16 -5.83805e-16 -1.18191e-16)
(0 0.0377903 3.87889 1.40549e-16 -4.87676e-16 -1.25808e-16)
(0 0.0367551 3.89421 7.13285e-17 -4.24989e-16 -1.19668e-16)
(0 0.0356989 3.90915 -8.04381e-18 -5.02807e-16 -9.00771e-17)
(1.89537e-16 0.0347157 3.92374 4.98596e-19 -4.79483e-16 -1.14371e-16)
(1.88481e-16 0.0337739 3.93793 8.27737e-17 -4.23418e-16 -7.01103e-17)
(0 0.0328103 3.95184 1.1647e-16 -4.4868e-16 -7.21482e-17)
(0 0.031918 3.96538 9.48537e-17 -4.39923e-16 -1.34491e-16)
(3.70692e-16 0.0310349 3.97859 7.17202e-17 -3.63605e-16 -1.4195e-16)
(0 0.0301908 3.9915 1.4836e-18 -2.80859e-16 -1.44628e-16)
(3.66571e-16 0.0293555 4.00406 -5.50294e-17 -3.75729e-16 -1.40516e-16)
(0 0.0284982 4.01636 1.08187e-18 -4.29064e-16 2.41697e-17)
(0 0.0277096 4.02835 -9.10722e-18 -3.38265e-16 1.79033e-17)
(0 0.0269587 4.04002 -5.74698e-17 -3.21181e-16 4.93078e-17)
(-1.79233e-16 0.0261857 4.05141 2.23321e-17 -3.67965e-16 9.60152e-17)
(0 0.0254204 4.06256 1.09807e-16 -4.57095e-16 4.73283e-17)
(0 0.0247215 4.07337 1.35839e-16 -4.43497e-16 -1.12735e-16)
(-1.76252e-16 0.0240297 4.08394 7.65016e-17 -2.97607e-16 -1.24039e-16)
(3.5054e-16 0.0233158 4.09425 -4.92376e-17 -2.55395e-16 -8.6676e-17)
(0 0.0226378 4.10431 -6.27083e-17 -3.1912e-16 -1.08079e-16)
(0 0.0219668 4.1141 3.97345e-17 -3.24227e-16 -9.09149e-17)
(0 0.0213025 4.12364 1.04383e-16 -2.80318e-16 -6.27935e-17)
(0 0.0206733 4.13291 8.67133e-17 -2.50734e-16 -8.90352e-17)
(0 0.0200786 4.14195 6.30659e-17 -2.17649e-16 -3.39016e-17)
(0 0.0194621 4.15077 1.30201e-16 -2.58669e-16 -4.9574e-17)
(0 0.0188237 4.15932 1.96697e-16 -2.3931e-16 -1.03325e-16)
(-1.67605e-16 0.0182473 4.16767 1.84963e-16 -1.97957e-16 -6.74288e-17)
(0 0.0176493 4.17575 1.31552e-16 -2.21032e-16 -2.71748e-17)
(0 0.0170845 4.18364 5.114e-17 -2.22134e-16 -9.34358e-17)
(3.29635e-16 0.016526 4.1913 2.63841e-17 -2.54762e-16 -6.16137e-17)
(0 0.0159726 4.19872 9.81349e-18 -2.31818e-16 -4.89761e-17)
(0 0.0154254 4.20589 -4.35038e-17 -2.3677e-16 -5.38336e-17)
(3.24153e-16 0.0148833 4.21287 2.22539e-18 -2.62874e-16 -1.53224e-16)
(0 0.0143738 4.21966 1.1507e-16 -2.19914e-16 -1.66544e-16)
(0 0.0138164 4.2262 1.92981e-16 -2.21214e-16 -2.2106e-16)
(0 0.013291 4.2325 1.66748e-16 -1.92208e-16 -2.85019e-16)
(3.16985e-16 0.0127974 4.23864 1.60405e-17 -1.07954e-16 -2.17018e-16)
(0 0.0123088 4.24454 -5.67669e-17 -9.7535e-17 -9.65771e-17)
(0 0.0117994 4.2502 1.61662e-17 -1.24468e-16 -3.52466e-17)
(3.11714e-16 0.0112952 4.25571 8.85614e-17 -1.20593e-16 3.58575e-17)
(0 0.0108219 4.26097 5.96174e-17 -1.28065e-16 9.02948e-17)
(-3.08248e-16 0.0103282 4.26604 -7.11201e-17 -1.79611e-16 1.58413e-17)
(0 0.00983946 4.27091 -1.71453e-16 -1.31837e-16 -7.57833e-17)
(0 0.00938115 4.27553 -7.71141e-17 -5.36411e-17 -1.11048e-17)
(-6.06245e-16 0.00890263 4.27996 -3.03036e-17 1.42794e-18 7.0327e-17)
(0 0.00842902 4.2842 -1.62401e-16 -1.43036e-18 -3.81609e-17)
(0 0.00796055 4.2882 -1.67563e-16 -4.07874e-17 -2.78477e-17)
(-2.98081e-16 0.0074969 4.292 -9.05908e-17 -4.99972e-17 1.07173e-16)
(0 0.00703831 4.29562 -7.9033e-17 -7.47561e-17 -2.16133e-19)
(0 0.00658447 4.299 -4.57505e-17 -2.02082e-17 -5.05255e-17)
(0 0.0061356 4.3022 3.78471e-17 4.30175e-17 -1.22313e-16)
(0 0.00566735 4.30512 4.35199e-17 1.06342e-16 -2.09279e-16)
(0 0.00520413 4.30786 -5.68493e-18 1.28585e-16 -1.26719e-16)
(-2.8825e-16 0.0047459 4.31042 3.37199e-18 1.07164e-16 -1.52151e-17)
(0 0.00431626 4.31272 5.81231e-17 1.20015e-16 3.40465e-17)
(0 0.00386788 4.31483 1.4789e-16 1.16754e-16 3.22103e-18)
(0 0.00340072 4.3167 2.23301e-16 1.44194e-16 -8.77973e-17)
(0 0.00296203 4.31834 2.05321e-16 2.10967e-16 -2.33374e-19)
(-2.80305e-16 0.002505 4.31978 1.50511e-16 1.60407e-16 8.35446e-17)
(0 0.00205285 4.32097 1.14075e-16 1.32058e-16 -2.78664e-17)
(0 0.00160579 4.32191 5.03125e-17 1.05983e-16 -3.33062e-17)
(0 0.00114078 4.32265 6.70878e-17 1.40994e-17 -4.0541e-17)
(0 0.000680906 4.32311 1.07185e-16 6.65887e-17 7.40961e-19)
(0 0.000226124 4.32338 -2.29829e-17 5.99581e-17 1.27304e-16)
(0 0.889889 0.11565 -4.5811e-14 -5.12366e-14 5.69166e-14)
(0 0.806026 0.321735 -4.15778e-14 1.22654e-14 4.40839e-14)
(-6.70115e-17 0.764105 0.525856 -1.58868e-14 2.7887e-14 1.60001e-14)
(0 0.718 0.718 -1.13957e-16 2.63484e-14 -3.04922e-16)
(0 0.668639 0.891585 7.34613e-15 1.98762e-14 -7.5328e-15)
(0 0.617808 1.04477 9.76053e-15 1.32663e-14 -9.81653e-15)
(0 0.567973 1.17921 9.70026e-15 8.11378e-15 -9.72708e-15)
(-1.30329e-16 0.521152 1.29783 8.65833e-15 4.59546e-15 -8.67395e-15)
(1.29602e-16 0.47841 1.40353 7.36542e-15 2.29984e-15 -7.42158e-15)
(0 0.440044 1.49873 6.17821e-15 8.79449e-16 -6.22657e-15)
(0 0.405891 1.58536 5.17459e-15 5.26349e-17 -5.18685e-15)
(0 0.375578 1.66485 4.30967e-15 -4.63231e-16 -4.35382e-15)
(0 0.348675 1.73834 3.63142e-15 -7.86968e-16 -3.64675e-15)
(-2.52061e-16 0.324744 1.8067 3.09869e-15 -9.76685e-16 -3.07656e-15)
(0 0.303384 1.87059 2.64707e-15 -1.03668e-15 -2.6393e-15)
(-1.24629e-16 0.284251 1.93053 2.24133e-15 -1.05684e-15 -2.27619e-15)
(2.47869e-16 0.267031 1.98697 1.92128e-15 -1.10273e-15 -2.0352e-15)
(2.46487e-16 0.251502 2.04032 1.78244e-15 -1.07165e-15 -1.78654e-15)
(-3.6767e-16 0.237407 2.09087 1.62316e-15 -9.93543e-16 -1.57e-15)
(1.21873e-16 0.224565 2.13887 1.33781e-15 -9.70924e-16 -1.39316e-15)
(0 0.212827 2.18454 1.13434e-15 -9.84996e-16 -1.24341e-15)
(0 0.202054 2.22804 1.01751e-15 -9.48016e-16 -1.14176e-15)
(0 0.192193 2.2696 9.09786e-16 -8.89475e-16 -1.02661e-15)
(2.38357e-16 0.183031 2.30935 8.54483e-16 -8.60827e-16 -8.8331e-16)
(-2.37029e-16 0.174556 2.34738 8.30988e-16 -8.09756e-16 -7.96646e-16)
(0 0.16672 2.38385 7.60133e-16 -7.277e-16 -7.05854e-16)
(-2.34393e-16 0.159394 2.41892 6.42529e-16 -6.92856e-16 -6.37458e-16)
(-2.33087e-16 0.152572 2.45256 5.87406e-16 -6.93553e-16 -6.21111e-16)
(0 0.146167 2.48491 5.96728e-16 -6.58594e-16 -5.71185e-16)
(2.30496e-16 0.140213 2.51608 5.44141e-16 -6.09368e-16 -5.49922e-16)
(2.29211e-16 0.134588 2.5461 4.61942e-16 -5.94535e-16 -5.46717e-16)
(4.55866e-16 0.129287 2.57511 4.97558e-16 -5.95463e-16 -5.19778e-16)
(-2.26662e-16 0.124342 2.60302 5.37543e-16 -5.04824e-16 -4.69331e-16)
(4.50798e-16 0.119636 2.63004 4.5346e-16 -4.41725e-16 -4.49453e-16)
(0 0.115202 2.65608 4.23195e-16 -4.67088e-16 -3.84452e-16)
(-4.45786e-16 0.111 2.68128 4.02772e-16 -4.19255e-16 -3.43005e-16)
(4.43301e-16 0.107025 2.70573 2.94626e-16 -3.32118e-16 -3.68377e-16)
(0 0.103237 2.72929 2.20962e-16 -3.5218e-16 -2.82561e-16)
(0 0.0996348 2.75218 2.16611e-16 -4.15298e-16 -2.79393e-16)
(-2.17965e-16 0.0962144 2.77432 2.51846e-16 -4.05173e-16 -2.1463e-16)
(0 0.092973 2.79579 2.76821e-16 -3.56278e-16 -2.45001e-16)
(2.15541e-16 0.0898728 2.8166 3.27095e-16 -3.24839e-16 -2.32814e-16)
(0 0.0868753 2.83678 2.92105e-16 -2.75209e-16 -1.83551e-16)
(2.13145e-16 0.0840502 2.85635 1.5888e-16 -2.67057e-16 -1.5785e-16)
(0 0.0813599 2.87538 1.67891e-16 -2.75049e-16 -1.48778e-16)
(-2.10775e-16 0.0787671 2.89384 1.91183e-16 -2.57004e-16 -8.13661e-17)
(2.096e-16 0.0762704 2.91176 1.26854e-16 -2.47292e-16 -1.27173e-16)
(2.08432e-16 0.0739031 2.92924 8.40335e-17 -2.33203e-16 -1.13731e-16)
(4.1454e-16 0.0715945 2.94615 1.12466e-16 -2.81258e-16 -1.31414e-16)
(-2.06115e-16 0.0694118 2.96265 2.1094e-16 -2.8357e-16 -1.07704e-16)
(0 0.0673199 2.97862 1.92709e-16 -2.5054e-16 -1.34976e-16)
(2.03823e-16 0.0652489 2.99419 1.18565e-16 -2.72601e-16 -1.93122e-16)
(0 0.0633001 3.00932 1.64153e-16 -2.58801e-16 -1.55757e-16)
(2.01557e-16 0.0614381 3.02405 1.9478e-16 -2.26018e-16 -2.20864e-16)
(0 0.0596283 3.03838 1.73038e-16 -2.02865e-16 -1.69338e-16)
(0 0.0578698 3.05236 1.67063e-16 -1.53468e-16 -1.50602e-16)
(-3.96411e-16 0.0561951 3.06593 1.51875e-16 -1.69872e-16 -7.87487e-17)
(0 0.0545374 3.07916 1.47101e-16 -1.85719e-16 -7.24832e-17)
(0 0.0529613 3.09202 1.29196e-16 -1.79069e-16 -2.35148e-17)
(-1.94909e-16 0.0514663 3.10453 2.2692e-17 -1.91765e-16 -4.65689e-17)
(0 0.0499862 3.11673 -6.17507e-18 -2.40096e-16 -8.84526e-18)
(-1.92742e-16 0.0485531 3.12867 1.36644e-16 -2.70383e-16 -6.13641e-17)
(0 0.0471662 3.14025 1.983e-16 -2.08013e-16 -6.86847e-17)
(0 0.0458251 3.15152 6.06812e-17 -1.51118e-16 -1.67884e-16)
(3.79074e-16 0.0445289 3.16252 -1.25979e-17 -1.68073e-16 -1.58457e-16)
(-3.76961e-16 0.0432459 3.17326 5.58632e-17 -1.56696e-16 1.41407e-17)
(-3.7486e-16 0.0420379 3.18364 7.11387e-17 -1.43798e-16 -9.83852e-18)
(0 0.0408734 3.19384 7.77478e-17 -1.95367e-16 -7.26427e-17)
(0 0.0396895 3.20374 1.27647e-16 -1.96656e-16 -8.88983e-17)
(-3.68626e-16 0.0385788 3.21336 1.45326e-16 -1.46052e-16 -5.20338e-17)
(0 0.0374795 3.22281 2.29914e-17 -1.2492e-16 -1.64117e-16)
(3.64528e-16 0.0364213 3.23191 -8.91507e-17 -7.58652e-17 -2.99575e-16)
(0 0.0354042 3.24087 -1.45511e-18 -7.93864e-17 -1.24393e-16)
(-3.60475e-16 0.0343672 3.24957 2.12366e-17 -1.10358e-16 -6.4421e-17)
(3.58466e-16 0.0333704 3.25804 -4.53143e-17 -7.75234e-17 -3.36991e-17)
(3.56468e-16 0.0324429 3.26625 -2.99707e-17 -1.31482e-16 -5.66095e-17)
(0 0.0314955 3.27428 5.24276e-17 -2.69209e-16 -1.96642e-16)
(0 0.0305573 3.28213 1.81742e-16 -2.47188e-16 -1.24194e-16)
(3.5054e-16 0.0296871 3.28972 1.55979e-16 -9.16658e-17 -1.12899e-16)
(3.48586e-16 0.0288257 3.29713 -3.13436e-17 -7.23948e-17 -6.34772e-17)
(0 0.0279729 3.30436 -7.42496e-17 -1.1323e-16 -1.42884e-16)
(0 0.0271287 3.31137 5.15191e-17 -9.33913e-17 -1.25525e-16)
(-3.42789e-16 0.0262931 3.3182 1.32387e-16 -9.46579e-17 -2.48054e-17)
(0 0.0254943 3.32486 1.09288e-16 -7.4801e-17 -2.54616e-17)
(3.38978e-16 0.0247318 3.33129 6.27107e-17 -6.16298e-17 -7.3751e-17)
(0 0.023949 3.33755 1.22962e-16 -1.13441e-16 -1.37719e-16)
(0 0.0232019 3.34363 2.05624e-16 -7.92201e-17 2.59079e-17)
(-3.33341e-16 0.0224626 3.34957 1.62281e-16 -4.02093e-17 -3.97293e-17)