/*--------------------------------*- C++ -*----------------------------------*\
| =========                 |                                                 |
| \\      /  F ield         | OpenFOAM: The Open Source CFD Toolbox           |
|  \\    /   O peration     | Version:  2306                                  |
|   \\  /    A nd           | Website:  www.openfoam.com                      |
|    \\/     M anipulation  |                                                 |
\*---------------------------------------------------------------------------*/
// * * * * * * * * * * * * * * * * * * * * * * * * * * * * * * * * * * * * * //
FoamFile
{
    version         2;
    format          ascii;
    class           volVectorField;
    location        "98.28";
    object          Udns;
}

dimensions      [ 0 1 -1 0 0 0 0 ];

internalField   nonuniform List<vector> 
15625
(
(0.000467611 -8.86982e-11 -8.86982e-11)
(0.0012877 1.68924e-08 -1.4973e-08)
(0.00203578 1.82238e-07 -7.96991e-08)
(0.00274245 7.32277e-07 -2.12045e-07)
(0.00342025 1.92535e-06 -4.01803e-07)
(0.00407596 3.98242e-06 -6.41143e-07)
(0.00471373 7.0966e-06 -9.1943e-07)
(0.00533629 1.14367e-05 -1.23132e-06)
(0.00594545 1.71587e-05 -1.58065e-06)
(0.00654232 2.44574e-05 -1.97386e-06)
(0.00712757 3.35528e-05 -2.41773e-06)
(0.00770138 4.46869e-05 -2.91772e-06)
(0.00826363 5.81145e-05 -3.47552e-06)
(0.00881384 7.41023e-05 -4.08594e-06)
(0.00935135 9.28829e-05 -4.73904e-06)
(0.00987521 0.000114609 -5.41683e-06)
(0.0103844 0.000139389 -6.09969e-06)
(0.0108779 0.000167215 -6.76727e-06)
(0.0113544 0.000198036 -7.39875e-06)
(0.011813 0.000231665 -7.97521e-06)
(0.0122525 0.00026784 -8.47849e-06)
(0.0126722 0.000306254 -8.89529e-06)
(0.0130714 0.000346534 -9.22062e-06)
(0.0134495 0.000388287 -9.45053e-06)
(0.0138061 0.000431098 -9.58394e-06)
(0.0141411 0.000474533 -9.62127e-06)
(0.0144544 0.000518165 -9.565e-06)
(0.0147463 0.000561615 -9.42365e-06)
(0.015017 0.000604503 -9.20706e-06)
(0.0152669 0.000646482 -8.92423e-06)
(0.0154966 0.000687264 -8.58256e-06)
(0.0157067 0.000726558 -8.18963e-06)
(0.0158979 0.000764127 -7.75369e-06)
(0.016071 0.000799794 -7.28371e-06)
(0.0162266 0.000833381 -6.78883e-06)
(0.0163657 0.000864753 -6.27588e-06)
(0.016489 0.000893812 -5.74958e-06)
(0.0165975 0.000920464 -5.21476e-06)
(0.0166918 0.00094466 -4.67709e-06)
(0.0167729 0.000966392 -4.14303e-06)
(0.0168416 0.000985658 -3.6192e-06)
(0.0168988 0.00100247 -3.10979e-06)
(0.0169451 0.00101688 -2.61607e-06)
(0.0169814 0.00102894 -2.13917e-06)
(0.0170086 0.0010387 -1.6809e-06)
(0.0170273 0.00104625 -1.24413e-06)
(0.0170383 0.0010517 -8.31958e-07)
(0.0170425 0.00105513 -4.46123e-07)
(0.0170404 0.00105664 -8.40199e-08)
(0.0170327 0.00105631 2.57898e-07)
(0.01702 0.00105423 5.82719e-07)
(0.0170029 0.00105049 8.89806e-07)
(0.0169821 0.00104517 1.17696e-06)
(0.0169582 0.00103836 1.44199e-06)
(0.0169319 0.00103014 1.68445e-06)
(0.0169034 0.00102062 1.90546e-06)
(0.0168733 0.00100988 2.10625e-06)
(0.0168421 0.000998048 2.28737e-06)
(0.0168101 0.000985216 2.44783e-06)
(0.0167777 0.000971503 2.58646e-06)
(0.0167452 0.000957019 2.70292e-06)
(0.0167128 0.000941832 2.80221e-06)
(0.0166807 0.000925996 2.89149e-06)
(0.0166492 0.000909563 2.97799e-06)
(0.0166184 0.000892563 3.06457e-06)
(0.0165886 0.000874996 3.14945e-06)
(0.01656 0.000856861 3.23059e-06)
(0.0165329 0.000838165 3.3063e-06)
(0.0165074 0.00081893 3.37612e-06)
(0.0164839 0.000799181 3.43983e-06)
(0.0164626 0.00077895 3.49687e-06)
(0.0164437 0.000758314 3.54304e-06)
(0.0164275 0.000737375 3.57191e-06)
(0.0164141 0.000716242 3.57685e-06)
(0.0164036 0.000695016 3.55659e-06)
(0.0163961 0.000673788 3.51937e-06)
(0.0163912 0.000652648 3.47465e-06)
(0.016389 0.000631678 3.43074e-06)
(0.0163893 0.000610892 3.38795e-06)
(0.0163921 0.000590281 3.34379e-06)
(0.0163975 0.000569835 3.29581e-06)
(0.0164054 0.000549542 3.24553e-06)
(0.0164156 0.000529392 3.19865e-06)
(0.0164281 0.000509371 3.16123e-06)
(0.0164428 0.000489467 3.13572e-06)
(0.0164598 0.000469673 3.11339e-06)
(0.0164794 0.00044998 3.08313e-06)
(0.0165018 0.00043039 3.03469e-06)
(0.0165269 0.00041098 2.96898e-06)
(0.0165547 0.000391876 2.89324e-06)
(0.016585 0.000373206 2.81496e-06)
(0.0166177 0.000355031 2.7376e-06)
(0.0166525 0.000337312 2.65872e-06)
(0.0166894 0.000320001 2.57538e-06)
(0.0167281 0.000303076 2.48562e-06)
(0.0167684 0.00028661 2.39135e-06)
(0.0168103 0.000270701 2.29548e-06)
(0.0168537 0.000255436 2.20092e-06)
(0.0168983 0.00024078 2.10982e-06)
(0.016944 0.000226628 2.02394e-06)
(0.0169905 0.000212873 1.94503e-06)
(0.0170378 0.000199483 1.8726e-06)
(0.0170855 0.000186518 1.80346e-06)
(0.0171334 0.000174045 1.73416e-06)
(0.0171813 0.000162094 1.66252e-06)
(0.017229 0.000150605 1.58957e-06)
(0.0172763 0.000139502 1.51681e-06)
(0.0173229 0.000128742 1.44461e-06)
(0.0173685 0.000118445 1.36811e-06)
(0.017413 0.000108776 1.28082e-06)
(0.0174561 9.98808e-05 1.17827e-06)
(0.0174977 9.16959e-05 1.07319e-06)
(0.0175373 8.40578e-05 9.86803e-07)
(0.0175748 7.67977e-05 9.39177e-07)
(0.0176102 6.97592e-05 9.26068e-07)
(0.0176436 6.2793e-05 9.25822e-07)
(0.0176753 5.5757e-05 9.16621e-07)
(0.0177049 4.87407e-05 8.93526e-07)
(0.0177319 4.20495e-05 8.67376e-07)
(0.0177555 3.59793e-05 8.49609e-07)
(0.0177754 3.01339e-05 8.43368e-07)
(0.0177916 2.33623e-05 8.42739e-07)
(0.0178042 1.44391e-05 8.41164e-07)
(0.017813 2.09814e-06 8.31866e-07)
(0.0178183 -1.49689e-05 8.07836e-07)
(0.0012877 -1.4973e-08 1.68924e-08)
(0.00367734 -7.54351e-08 -7.54351e-08)
(0.0059012 1.6236e-07 -5.7644e-07)
(0.00801354 1.28713e-06 -1.59493e-06)
(0.0100441 3.97013e-06 -3.1117e-06)
(0.0120106 8.8324e-06 -5.05817e-06)
(0.0139246 1.64615e-05 -7.38087e-06)
(0.0157936 2.74171e-05 -1.00567e-05)
(0.0176229 4.22473e-05 -1.30945e-05)
(0.0194156 6.1568e-05 -1.65416e-05)
(0.0211737 8.60394e-05 -2.04472e-05)
(0.0228976 0.000116358 -2.48284e-05)
(0.0245869 0.00015322 -2.96757e-05)
(0.0262401 0.00019729 -3.49387e-05)
(0.0278551 0.000249137 -4.05301e-05)
(0.0294292 0.000309117 -4.62972e-05)
(0.0309591 0.000377469 -5.20762e-05)
(0.0324417 0.000454111 -5.77047e-05)
(0.0338733 0.00053885 -6.30182e-05)
(0.0352508 0.000631172 -6.78668e-05)
(0.0365712 0.000730385 -7.21063e-05)
(0.0378318 0.000835676 -7.56304e-05)
(0.0390306 0.000946056 -7.83969e-05)
(0.0401659 0.00106048 -8.03721e-05)
(0.0412368 0.00117787 -8.15476e-05)
(0.0422426 0.00129709 -8.19279e-05)
(0.0431833 0.00141702 -8.15332e-05)
(0.0440595 0.00153665 -8.04294e-05)
(0.044872 0.00165496 -7.86926e-05)
(0.0456221 0.00177101 -7.6394e-05)
(0.0463116 0.00188404 -7.35956e-05)
(0.0469421 0.00199325 -7.03607e-05)
(0.0475159 0.002098 -6.67575e-05)
(0.0480351 0.00219779 -6.28588e-05)
(0.0485021 0.0022921 -5.87393e-05)
(0.0489194 0.00238055 -5.44559e-05)
(0.0492894 0.00246286 -5.005e-05)
(0.0496147 0.00253877 -4.55643e-05)
(0.0498977 0.00260812 -4.10447e-05)
(0.0501409 0.00267084 -3.65414e-05)
(0.0503469 0.00272687 -3.21052e-05)
(0.0505181 0.00277623 -2.77714e-05)
(0.0506568 0.00281901 -2.35557e-05)
(0.0507656 0.00285531 -1.94731e-05)
(0.0508468 0.00288527 -1.55413e-05)
(0.0509026 0.0029091 -1.17823e-05)
(0.0509355 0.00292703 -8.21889e-06)
(0.0509477 0.00293928 -4.86511e-06)
(0.0509411 0.00294609 -1.70601e-06)
(0.0509175 0.00294771 1.27954e-06)
(0.050879 0.00294437 4.11009e-06)
(0.0508274 0.0029363 6.78265e-06)
(0.0507645 0.00292374 9.28524e-06)
(0.0506924 0.00290691 1.1606e-05)
(0.0506128 0.00288608 1.37413e-05)
(0.0505269 0.00286149 1.56955e-05)
(0.0504363 0.00283342 1.74731e-05)
(0.0503422 0.00280214 1.90762e-05)
(0.0502457 0.00276796 2.05014e-05)
(0.0501479 0.00273118 2.17444e-05)
(0.0500499 0.0026921 2.28066e-05)
(0.0499523 0.0026509 2.37266e-05)
(0.0498557 0.00260775 2.45573e-05)
(0.0497606 0.00256279 2.53527e-05)
(0.0496677 0.00251611 2.6135e-05)
(0.0495778 0.00246775 2.68933e-05)
(0.0494915 0.00241772 2.76146e-05)
(0.0494096 0.00236605 2.82875e-05)
(0.0493329 0.00231284 2.89061e-05)
(0.049262 0.00225818 2.94651e-05)
(0.0491976 0.00220217 2.99571e-05)
(0.0491404 0.00214501 3.03524e-05)
(0.0490912 0.00208696 3.06072e-05)
(0.0490505 0.0020283 3.06768e-05)
(0.0490188 0.00196927 3.05526e-05)
(0.0489957 0.00191012 3.02916e-05)
(0.0489807 0.00185109 2.99586e-05)
(0.0489736 0.00179239 2.96118e-05)
(0.0489741 0.0017341 2.92593e-05)
(0.0489822 0.0016762 2.88917e-05)
(0.048998 0.0016187 2.85e-05)
(0.0490212 0.00156159 2.80963e-05)
(0.0490516 0.00150485 2.77149e-05)
(0.0490887 0.00144846 2.73923e-05)
(0.0491323 0.00139241 2.71415e-05)
(0.049183 0.00133671 2.69033e-05)
(0.0492415 0.00128139 2.66033e-05)
(0.0493082 0.00122647 2.61728e-05)
(0.0493832 0.00117214 2.56173e-05)
(0.0494661 0.00111866 2.49849e-05)
(0.0495567 0.00106631 2.43252e-05)
(0.0496545 0.00101521 2.36629e-05)
(0.0497589 0.000965316 2.29866e-05)
(0.0498692 0.000916554 2.22816e-05)
(0.049985 0.00086889 2.15386e-05)
(0.0501059 0.00082245 2.07697e-05)
(0.0502313 0.000777399 1.99922e-05)
(0.0503611 0.000733886 1.92237e-05)
(0.0504946 0.000691851 1.84777e-05)
(0.0506314 0.000651116 1.77657e-05)
(0.0507709 0.000611497 1.70992e-05)
(0.0509125 0.000572954 1.64739e-05)
(0.0510554 0.000535614 1.5867e-05)
(0.0511991 0.000499619 1.52538e-05)
(0.0513427 0.000465048 1.46186e-05)
(0.0514857 0.000431817 1.3968e-05)
(0.0516273 0.000399821 1.33124e-05)
(0.0517669 0.000369012 1.26549e-05)
(0.0519037 0.000339616 1.19663e-05)
(0.0520371 0.000311947 1.12074e-05)
(0.0521665 0.000286273 1.03529e-05)
(0.0522909 0.000262447 9.49402e-06)
(0.0524096 0.000240119 8.78032e-06)
(0.052522 0.000218923 8.3528e-06)
(0.0526279 0.000198466 8.18199e-06)
(0.0527281 0.000178329 8.11621e-06)
(0.052823 0.000158112 8.00241e-06)
(0.052912 0.000138036 7.8021e-06)
(0.052993 0.000118906 7.58382e-06)
(0.0530638 0.0001015 7.42024e-06)
(0.0531235 8.47817e-05 7.33257e-06)
(0.053172 6.57316e-05 7.28584e-06)
(0.0532095 4.11369e-05 7.24117e-06)
(0.0532361 7.67679e-06 7.15835e-06)
(0.0532518 -3.80798e-05 6.99582e-06)
(0.00203578 -7.96991e-08 1.82238e-07)
(0.0059012 -5.7644e-07 1.6236e-07)
(0.00955647 -9.38664e-07 -9.38664e-07)
(0.0130529 -2.51176e-07 -3.35631e-06)
(0.0164256 2.50306e-06 -7.09228e-06)
(0.0196979 8.30697e-06 -1.2001e-05)
(0.0228862 1.81366e-05 -1.79998e-05)
(0.0260019 3.29652e-05 -2.50609e-05)
(0.0290526 5.37756e-05 -3.31924e-05)
(0.0320431 8.16297e-05 -4.24959e-05)
(0.0349763 0.000117631 -5.30676e-05)
(0.0378526 0.000162888 -6.4897e-05)
(0.0406712 0.000218466 -7.79104e-05)
(0.0434294 0.000285312 -9.19475e-05)
(0.0461236 0.000364211 -0.000106762)
(0.0487491 0.000455609 -0.000121953)
(0.0513007 0.000559776 -0.000137098)
(0.0537727 0.000676503 -0.000151792)
(0.0561593 0.000805418 -0.000165627)
(0.0584553 0.000945723 -0.000178236)
(0.0606555 0.00109637 -0.000189269)
(0.0627557 0.00125616 -0.000198466)
(0.0647527 0.00142363 -0.00020572)
(0.0666435 0.00159724 -0.000210947)
(0.0684267 0.00177544 -0.000214127)
(0.0701015 0.00195657 -0.000215278)
(0.0716675 0.00213901 -0.000214451)
(0.0731261 0.0023213 -0.000211804)
(0.0744786 0.00250191 -0.000207518)
(0.0757271 0.00267949 -0.000201765)
(0.0768746 0.00285287 -0.000194706)
(0.077924 0.00302088 -0.000186506)
(0.0788789 0.00318255 -0.000177337)
(0.079743 0.00333709 -0.00016738)
(0.0805203 0.00348371 -0.000156821)
(0.0812148 0.00362182 -0.000145806)
(0.0818305 0.00375097 -0.000134447)
(0.0823717 0.00387073 -0.000122857)
(0.0828425 0.00398082 -0.000111153)
(0.0832471 0.00408108 -9.94548e-05)
(0.0835896 0.00417137 -8.78833e-05)
(0.0838742 0.00425166 -7.65291e-05)
(0.0841047 0.00432202 -6.54429e-05)
(0.0842852 0.00438255 -5.4675e-05)
(0.0844197 0.00443342 -4.42774e-05)
(0.0845119 0.00447489 -3.43036e-05)
(0.0845657 0.00450723 -2.48089e-05)
(0.084585 0.00453077 -1.583e-05)
(0.0845729 0.00454582 -7.3421e-06)
(0.0845326 0.00455274 6.92555e-07)
(0.0844672 0.00455187 8.30713e-06)
(0.0843798 0.00454356 1.54965e-05)
(0.0842738 0.00452815 2.22396e-05)
(0.0841522 0.004506 2.85154e-05)
(0.0840179 0.00447748 3.43151e-05)
(0.0838732 0.00444299 3.9641e-05)
(0.0837205 0.00440293 4.44962e-05)
(0.083562 0.00435772 4.88824e-05)
(0.0833994 0.00430781 5.27983e-05)
(0.0832346 0.00425364 5.62425e-05)
(0.0830694 0.00419567 5.92266e-05)
(0.0829047 0.00413419 6.18415e-05)
(0.0827416 0.00406944 6.42108e-05)
(0.0825811 0.00400167 6.64592e-05)
(0.0824242 0.00393104 6.86413e-05)
(0.0822722 0.00385763 7.07371e-05)
(0.0821263 0.0037815 7.27226e-05)
(0.0819878 0.00370274 7.45742e-05)
(0.0818578 0.0036215 7.62724e-05)
(0.0817374 0.00353794 7.77977e-05)
(0.0816279 0.00345225 7.91261e-05)
(0.0815304 0.00336471 8.01922e-05)
(0.0814459 0.00327571 8.09043e-05)
(0.0813758 0.0031856 8.11688e-05)
(0.0813205 0.00309477 8.09686e-05)
(0.0812794 0.00300356 8.04246e-05)
(0.0812519 0.00291232 7.96749e-05)
(0.0812373 0.00282139 7.8845e-05)
(0.0812355 0.00273087 7.79662e-05)
(0.0812464 0.00264082 7.70368e-05)
(0.08127 0.00255126 7.60564e-05)
(0.081306 0.00246223 7.50542e-05)
(0.081354 0.00237373 7.40904e-05)
(0.0814131 0.00228576 7.3229e-05)
(0.0814833 0.00219833 7.24885e-05)
(0.0815653 0.00211153 7.17485e-05)
(0.0816601 0.00202542 7.08586e-05)
(0.0817687 0.00194012 6.96804e-05)
(0.0818911 0.00185583 6.82257e-05)
(0.0820268 0.00177283 6.65922e-05)
(0.0821751 0.00169144 6.48805e-05)
(0.0823354 0.0016118 6.31452e-05)
(0.0825067 0.0015339 6.13722e-05)
(0.0826882 0.0014577 5.95418e-05)
(0.0828789 0.0013832 5.76436e-05)
(0.083078 0.00131049 5.57042e-05)
(0.0832848 0.00123967 5.37591e-05)
(0.0834984 0.00117086 5.18435e-05)
(0.0837183 0.00110399 4.99773e-05)
(0.0839436 0.00103895 4.81722e-05)
(0.0841737 0.000975615 4.64392e-05)
(0.0844076 0.000913987 4.47654e-05)
(0.084644 0.000854254 4.31087e-05)
(0.0848815 0.000796613 4.14239e-05)
(0.0851187 0.000741194 3.96826e-05)
(0.0853548 0.000687953 3.78976e-05)
(0.0855887 0.00063682 3.60882e-05)
(0.0858194 0.000587779 3.42612e-05)
(0.0860458 0.000541061 3.23657e-05)
(0.0862665 0.000496976 3.0333e-05)
(0.0864801 0.000455781 2.81233e-05)
(0.0866855 0.000417284 2.59393e-05)
(0.0868815 0.000381073 2.41045e-05)
(0.0870672 0.000346709 2.2924e-05)
(0.0872425 0.000313648 2.23344e-05)
(0.0874083 0.000281267 2.2008e-05)
(0.0875654 0.000248965 2.16135e-05)
(0.0877125 0.000217049 2.10589e-05)
(0.0878463 0.00018667 2.04755e-05)
(0.0879634 0.000158946 2.00032e-05)
(0.0880622 0.000132377 1.96867e-05)
(0.0881425 0.00010261 1.94668e-05)
(0.0882045 6.50152e-05 1.9277e-05)
(0.0882482 1.4803e-05 1.90487e-05)
(0.0882738 -5.29727e-05 1.8711e-05)
(0.00274245 -2.12045e-07 7.32277e-07)
(0.00801354 -1.59493e-06 1.28713e-06)
(0.0130529 -3.35631e-06 -2.51176e-07)
(0.0179041 -4.23933e-06 -4.23933e-06)
(0.0226005 -2.90646e-06 -1.07017e-05)
(0.0271672 1.97292e-06 -1.9442e-05)
(0.0316225 1.17479e-05 -3.03731e-05)
(0.0359796 2.78027e-05 -4.34828e-05)
(0.040248 5.1566e-05 -5.87926e-05)
(0.0444331 8.45379e-05 -7.64444e-05)
(0.0485381 0.000128242 -9.65497e-05)
(0.0525632 0.000184165 -0.000119019)
(0.0565068 0.000253684 -0.000143645)
(0.0603649 0.000337952 -0.000170065)
(0.0641323 0.000437889 -0.000197776)
(0.0678022 0.000553953 -0.000226042)
(0.0713672 0.000686372 -0.000254091)
(0.0748195 0.000834773 -0.000281197)
(0.0781511 0.000998591 -0.000306637)
(0.0813549 0.00117677 -0.000329777)
(0.0844239 0.00136796 -0.000350028)
(0.0873523 0.00157065 -0.000366947)
(0.0901358 0.00178304 -0.00038035)
(0.0927706 0.00200326 -0.000390085)
(0.0952548 0.0022294 -0.000396128)
(0.0975875 0.00245946 -0.000398519)
(0.0997686 0.00269149 -0.000397354)
(0.1018 0.00292366 -0.000392901)
(0.103683 0.00315417 -0.000385466)
(0.105422 0.00338132 -0.000375349)
(0.107019 0.00360368 -0.000362841)
(0.108481 0.00381981 -0.000348238)
(0.109811 0.00402847 -0.000331846)
(0.111014 0.00422867 -0.000313982)
(0.112097 0.00441939 -0.000294967)
(0.113065 0.00459987 -0.000275065)
(0.113922 0.0047695 -0.000254481)
(0.114676 0.00492769 -0.000233429)
(0.115332 0.00507403 -0.000212115)
(0.115896 0.00520825 -0.000190741)
(0.116373 0.00533012 -0.000169514)
(0.116769 0.00543951 -0.000148596)
(0.11709 0.00553644 -0.000128096)
(0.117341 0.00562097 -0.000108122)
(0.117527 0.00569321 -8.87778e-05)
(0.117654 0.00575344 -7.01594e-05)
(0.117728 0.00580195 -5.23631e-05)
(0.117753 0.00583905 -3.54577e-05)
(0.117734 0.00586513 -1.94187e-05)
(0.117675 0.00588057 -4.20235e-06)
(0.117581 0.00588578 1.02297e-05)
(0.117457 0.00588119 2.38687e-05)
(0.117306 0.0058672 3.66863e-05)
(0.117133 0.00584428 4.8654e-05)
(0.116942 0.00581289 5.97549e-05)
(0.116736 0.00577352 6.99821e-05)
(0.116518 0.00572668 7.93295e-05)
(0.116293 0.00567291 8.77955e-05)
(0.116061 0.00561275 9.53886e-05)
(0.115826 0.00554677 0.000102119)
(0.115591 0.00547551 0.000108018)
(0.115355 0.00539938 0.000113237)
(0.115122 0.0053187 0.000117979)
(0.114892 0.00523379 0.000122447)
(0.114668 0.0051449 0.000126737)
(0.11445 0.00505216 0.000130828)
(0.11424 0.0049557 0.00013469)
(0.114041 0.00485567 0.000138294)
(0.113853 0.00475228 0.000141598)
(0.113679 0.00464576 0.000144558)
(0.11352 0.00453633 0.000147126)
(0.113378 0.00442437 0.000149197)
(0.113253 0.00431031 0.000150634)
(0.113148 0.00419462 0.000151297)
(0.113064 0.00407775 0.00015116)
(0.112999 0.00396012 0.000150409)
(0.112953 0.00384217 0.000149254)
(0.112925 0.0037243 0.00014789)
(0.112915 0.0036067 0.000146384)
(0.112923 0.00348947 0.000144761)
(0.112948 0.00337271 0.000143044)
(0.112991 0.00325651 0.000141284)
(0.11305 0.00314093 0.000139551)
(0.113125 0.00302604 0.00013792)
(0.113215 0.00291191 0.000136407)
(0.113323 0.00279868 0.000134846)
(0.113448 0.00268648 0.000133032)
(0.113592 0.00257548 0.000130774)
(0.113755 0.00246588 0.000128091)
(0.113937 0.00235791 0.00012512)
(0.114136 0.00225183 0.000122003)
(0.114353 0.0021478 0.000118822)
(0.114584 0.00204583 0.000115575)
(0.114831 0.00194596 0.000112248)
(0.11509 0.00184818 0.000108844)
(0.115361 0.00175253 0.000105403)
(0.115643 0.00165903 0.000101977)
(0.115934 0.00156769 9.86157e-05)
(0.116234 0.00147851 9.53288e-05)
(0.116541 0.00139149 9.2103e-05)
(0.116856 0.00130662 8.89238e-05)
(0.117176 0.001224 8.57627e-05)
(0.1175 0.00114387 8.25744e-05)
(0.117826 0.0010665 7.93113e-05)
(0.118151 0.000992059 7.59454e-05)
(0.118475 0.000920576 7.24974e-05)
(0.118795 0.000852044 6.89956e-05)
(0.119112 0.000786485 6.54532e-05)
(0.119422 0.000724065 6.18114e-05)
(0.119725 0.000664993 5.79896e-05)
(0.120018 0.000609436 5.39502e-05)
(0.120299 0.000557189 5.0009e-05)
(0.120567 0.000507864 4.66585e-05)
(0.120822 0.000461044 4.43636e-05)
(0.121063 0.000416117 4.30282e-05)
(0.121292 0.000372324 4.21541e-05)
(0.121508 0.000328936 4.12369e-05)
(0.121709 0.000286309 4.01231e-05)
(0.121893 0.00024581 3.89862e-05)
(0.122053 0.000208766 3.80128e-05)
(0.122189 0.00017336 3.72709e-05)
(0.1223 0.00013435 3.66995e-05)
(0.122385 8.61554e-05 3.62292e-05)
(0.122445 2.30097e-05 3.57878e-05)
(0.122479 -6.10457e-05 3.53012e-05)
(0.00342025 -4.01803e-07 1.92535e-06)
(0.0100441 -3.1117e-06 3.97013e-06)
(0.0164256 -7.09228e-06 2.50306e-06)
(0.0226005 -1.07017e-05 -2.90646e-06)
(0.0285986 -1.2275e-05 -1.2275e-05)
(0.0344435 -1.01411e-05 -2.53837e-05)
(0.0401535 -2.5948e-06 -4.21622e-05)
(0.045742 1.21406e-05 -6.26375e-05)
(0.0512188 3.59242e-05 -8.68714e-05)
(0.0565892 7.06758e-05 -0.00011502)
(0.0618562 0.000118315 -0.000147157)
(0.0670191 0.00018066 -0.00018305)
(0.0720751 0.000259351 -0.000222278)
(0.0770186 0.000355681 -0.000264166)
(0.0818427 0.000470643 -0.000307859)
(0.0865386 0.000604654 -0.00035221)
(0.0910969 0.000757858 -0.000396032)
(0.0955078 0.000929711 -0.000438221)
(0.0997613 0.00111944 -0.000477686)
(0.103849 0.00132578 -0.000513509)
(0.107762 0.00154715 -0.000544857)
(0.111493 0.0017818 -0.000571103)
(0.115038 0.0020277 -0.000591975)
(0.118392 0.00228275 -0.000607255)
(0.121553 0.00254481 -0.000616922)
(0.12452 0.0028117 -0.000621059)
(0.127294 0.00308125 -0.000619827)
(0.129877 0.00335146 -0.000613602)
(0.132272 0.0036203 -0.000602815)
(0.134483 0.0038859 -0.000587904)
(0.136515 0.00414663 -0.000569309)
(0.138374 0.00440087 -0.000547487)
(0.140065 0.0046472 -0.000522895)
(0.141597 0.00488448 -0.00049599)
(0.142974 0.00511154 -0.000467239)
(0.144205 0.00532745 -0.000437036)
(0.145297 0.00553145 -0.000405703)
(0.146257 0.00572282 -0.000373572)
(0.147093 0.00590102 -0.000340952)
(0.14781 0.00606566 -0.000308134)
(0.148418 0.0062164 -0.000275416)
(0.148922 0.006353 -0.000243043)
(0.14933 0.00647541 -0.000211198)
(0.149649 0.00658358 -0.000180066)
(0.149886 0.00667755 -0.000149818)
(0.150046 0.00675755 -0.000120599)
(0.150138 0.00682384 -9.25553e-05)
(0.150167 0.00687668 -6.57973e-05)
(0.150139 0.00691644 -4.0313e-05)
(0.150061 0.00694351 -1.60658e-05)
(0.149937 0.00695829 6.97483e-06)
(0.149773 0.00696123 2.87893e-05)
(0.149575 0.0069528 4.9337e-05)
(0.149348 0.0069335 6.8577e-05)
(0.149098 0.00690386 8.64788e-05)
(0.148828 0.00686445 0.000103021)
(0.148543 0.00681586 0.000118183)
(0.148247 0.00675871 0.000131958)
(0.147943 0.00669361 0.000144371)
(0.147634 0.00662121 0.000155454)
(0.147323 0.00654214 0.000165264)
(0.147012 0.00645686 0.000174015)
(0.146704 0.00636576 0.000181985)
(0.1464 0.00626926 0.000189457)
(0.146102 0.00616768 0.00019657)
(0.145812 0.0060612 0.000203311)
(0.145534 0.00595005 0.000209661)
(0.145268 0.00583443 0.000215587)
(0.145017 0.0057146 0.000221025)
(0.144782 0.00559082 0.000225902)
(0.144567 0.00546337 0.000230136)
(0.144372 0.00533267 0.000233587)
(0.1442 0.00519921 0.000236077)
(0.144053 0.00506351 0.000237421)
(0.143931 0.00492607 0.000237591)
(0.143833 0.00478738 0.000236826)
(0.14376 0.00464793 0.000235402)
(0.143709 0.00450819 0.000233578)
(0.143681 0.00436841 0.000231464)
(0.143676 0.00422877 0.000229122)
(0.143693 0.00408945 0.000226613)
(0.143732 0.00395063 0.000224005)
(0.143792 0.00381246 0.000221365)
(0.143872 0.00367509 0.000218763)
(0.143973 0.00353869 0.000216206)
(0.144096 0.00340345 0.000213511)
(0.144241 0.00326956 0.000210453)
(0.14441 0.00313721 0.000206826)
(0.144604 0.00300658 0.000202657)
(0.144821 0.00287781 0.000198108)
(0.145061 0.00275108 0.000193344)
(0.145322 0.00262649 0.000188472)
(0.145604 0.0025041 0.000183507)
(0.145904 0.00238395 0.000178457)
(0.146222 0.00226608 0.00017334)
(0.146555 0.00215047 0.000168209)
(0.146901 0.00203705 0.000163127)
(0.147259 0.00192581 0.000158149)
(0.147628 0.00181679 0.000153255)
(0.148007 0.00171012 0.00014838)
(0.148396 0.00160593 0.000143457)
(0.148792 0.00150442 0.000138436)
(0.149194 0.0014059 0.000133285)
(0.149598 0.0013107 0.000127975)
(0.150002 0.00121907 0.000122495)
(0.150403 0.00113109 0.000116885)
(0.150801 0.00104683 0.000111192)
(0.151194 0.000966364 0.000105446)
(0.15158 0.000889732 9.95967e-05)
(0.151955 0.000816987 9.35714e-05)
(0.152318 0.000748149 8.73486e-05)
(0.152666 0.000683027 8.13368e-05)
(0.152999 0.000621318 7.61592e-05)
(0.153317 0.000562688 7.24039e-05)
(0.153618 0.000506537 6.99492e-05)
(0.153903 0.00045207 6.81644e-05)
(0.154172 0.000398519 6.64105e-05)
(0.154423 0.000346263 6.44778e-05)
(0.15465 0.000296753 6.25572e-05)
(0.15485 0.000251391 6.08559e-05)
(0.155019 0.000208145 5.9464e-05)
(0.155157 0.000161244 5.83435e-05)
(0.155264 0.000104546 5.74488e-05)
(0.155338 3.17022e-05 5.67325e-05)
(0.155379 -6.38455e-05 5.61458e-05)
(0.00407596 -6.41143e-07 3.98242e-06)
(0.0120106 -5.05817e-06 8.8324e-06)
(0.0196979 -1.2001e-05 8.30697e-06)
(0.0271672 -1.9442e-05 1.97292e-06)
(0.0344435 -2.53837e-05 -1.01411e-05)
(0.0415478 -2.78161e-05 -2.78161e-05)
(0.0484963 -2.46815e-05 -5.10172e-05)
(0.0553014 -1.38206e-05 -7.98295e-05)
(0.0619719 7.03565e-06 -0.000114375)
(0.0685122 4.01958e-05 -0.000154786)
(0.0749239 8.7937e-05 -0.000201042)
(0.0812052 0.000152366 -0.000252696)
(0.0873517 0.000235342 -0.00030903)
(0.093356 0.000338258 -0.000368951)
(0.0992093 0.000462143 -0.000431155)
(0.104901 0.000607344 -0.000494019)
(0.11042 0.000773903 -0.000555889)
(0.115754 0.000961114 -0.000615246)
(0.120892 0.00116803 -0.000670598)
(0.125825 0.0013932 -0.000720743)
(0.130542 0.00163488 -0.000764623)
(0.135037 0.00189116 -0.000801439)
(0.139303 0.00215989 -0.00083084)
(0.143337 0.00243884 -0.000852543)
(0.147137 0.00272575 -0.000866547)
(0.150702 0.00301836 -0.000872993)
(0.154033 0.00331439 -0.000872117)
(0.157135 0.00361176 -0.000864406)
(0.16001 0.00390834 -0.000850415)
(0.162663 0.00420218 -0.000830718)
(0.165103 0.00449155 -0.000805918)
(0.167334 0.00477471 -0.000776638)
(0.169366 0.00505017 -0.000743489)
(0.171205 0.00531665 -0.000707069)
(0.17286 0.00557287 -0.000667989)
(0.17434 0.00581779 -0.000626775)
(0.175652 0.00605052 -0.000583873)
(0.176806 0.00627021 -0.000539743)
(0.177811 0.00647618 -0.000494801)
(0.178675 0.00666794 -0.000449432)
(0.179406 0.006845 -0.000404026)
(0.180013 0.00700702 -0.000358922)
(0.180504 0.00715382 -0.000314387)
(0.180887 0.00728525 -0.000270695)
(0.18117 0.00740125 -0.000228096)
(0.181362 0.00750194 -0.000186789)
(0.18147 0.00758749 -0.000146977)
(0.181502 0.0076581 -0.000108818)
(0.181464 0.00771406 -7.23274e-05)
(0.181364 0.0077557 -3.74903e-05)
(0.181209 0.00778337 -4.29889e-06)
(0.181005 0.00779751 2.72048e-05)
(0.180759 0.00779859 5.69576e-05)
(0.180477 0.00778713 8.48952e-05)
(0.180165 0.00776368 0.000110965)
(0.179829 0.00772887 0.000135125)
(0.179474 0.00768336 0.000157334)
(0.179105 0.00762782 0.000177577)
(0.178725 0.00756291 0.000195906)
(0.178338 0.00748931 0.00021238)
(0.177948 0.00740769 0.000227093)
(0.177558 0.00731857 0.000240315)
(0.177169 0.00722242 0.000252388)
(0.176785 0.00711971 0.000263662)
(0.176408 0.00701081 0.000274323)
(0.176041 0.00689601 0.00028438)
(0.175687 0.00677558 0.000293838)
(0.175348 0.0066498 0.000302676)
(0.175026 0.00651896 0.000310802)
(0.174724 0.00638334 0.000318111)
(0.174445 0.00624325 0.000324487)
(0.17419 0.00609914 0.000329753)
(0.173961 0.00595155 0.000333691)
(0.173761 0.00580105 0.00033608)
(0.173591 0.0056482 0.000336882)
(0.17345 0.0054935 0.00033639)
(0.173338 0.00533748 0.00033494)
(0.173254 0.00518066 0.000332848)
(0.173196 0.00502336 0.000330266)
(0.173166 0.00486585 0.000327291)
(0.173162 0.00470839 0.000324021)
(0.173184 0.00455127 0.000320535)
(0.173232 0.00439474 0.000316892)
(0.173305 0.00423908 0.000313149)
(0.173404 0.00408455 0.000309308)
(0.173528 0.0039314 0.000305203)
(0.173681 0.00377985 0.000300628)
(0.173862 0.00363012 0.000295396)
(0.174072 0.00348234 0.000289551)
(0.17431 0.00333654 0.000283269)
(0.174577 0.00319279 0.000276732)
(0.17487 0.00305112 0.000270059)
(0.175187 0.00291158 0.000263283)
(0.175528 0.00277422 0.000256429)
(0.17589 0.00263905 0.000249532)
(0.176271 0.00250607 0.000242643)
(0.176668 0.00237523 0.000235826)
(0.177079 0.00224652 0.000229129)
(0.177504 0.00212005 0.000222492)
(0.177941 0.00199606 0.000215787)
(0.17839 0.00187477 0.000208882)
(0.17885 0.00175648 0.0002017)
(0.179316 0.00164157 0.000194232)
(0.179785 0.00153044 0.000186472)
(0.180254 0.00142341 0.000178439)
(0.180721 0.00132064 0.000170211)
(0.181184 0.00122224 0.000161877)
(0.18164 0.00112832 0.000153507)
(0.182088 0.00103879 0.000145074)
(0.182524 0.000953561 0.000136525)
(0.182945 0.000872498 0.000127862)
(0.183349 0.000795423 0.000119554)
(0.183737 0.000722124 0.000112299)
(0.184107 0.000652361 0.000106759)
(0.184461 0.000585614 0.000102793)
(0.184795 0.000521161 9.9687e-05)
(0.18511 0.00045831 9.67157e-05)
(0.185402 0.000397453 9.36321e-05)
(0.185667 0.00034 9.06345e-05)
(0.1859 0.000287302 8.79395e-05)
(0.186098 0.000237186 8.56605e-05)
(0.18626 0.000183636 8.37975e-05)
(0.186385 0.000120254 8.23451e-05)
(0.186471 4.04233e-05 8.12973e-05)
(0.186519 -6.26886e-05 8.06481e-05)
(0.00471373 -9.1943e-07 7.0966e-06)
(0.0139246 -7.38087e-06 1.64615e-05)
(0.0228862 -1.79998e-05 1.81366e-05)
(0.0316225 -3.03731e-05 1.17479e-05)
(0.0401535 -4.21622e-05 -2.5948e-06)
(0.0484963 -5.10172e-05 -2.46815e-05)
(0.0566642 -5.4527e-05 -5.4527e-05)
(0.064667 -5.01587e-05 -9.22886e-05)
(0.0725114 -3.52544e-05 -0.000138155)
(0.0801999 -7.14212e-06 -0.000192198)
(0.0877323 3.67828e-05 -0.000254235)
(0.0951046 9.88756e-05 -0.000323529)
(0.102311 0.000181173 -0.000398977)
(0.109341 0.000285138 -0.00047897)
(0.116186 0.000411811 -0.000561668)
(0.122832 0.000561463 -0.000644926)
(0.129266 0.000734038 -0.00072658)
(0.135476 0.000928697 -0.000804677)
(0.141449 0.00114435 -0.000877315)
(0.147175 0.00137945 -0.000943023)
(0.152644 0.00163213 -0.00100054)
(0.157849 0.00190041 -0.00104892)
(0.162784 0.0021821 -0.00108774)
(0.167445 0.00247491 -0.00111667)
(0.171831 0.00277659 -0.00113574)
(0.175945 0.00308486 -0.00114517)
(0.179786 0.00339742 -0.00114526)
(0.18336 0.00371219 -0.00113663)
(0.186673 0.00402705 -0.00111993)
(0.18973 0.00434002 -0.00109587)
(0.19254 0.00464934 -0.00106522)
(0.19511 0.00495325 -0.00102875)
(0.197451 0.00525017 -0.000987248)
(0.19957 0.00553877 -0.000941423)
(0.201477 0.0058177 -0.000892027)
(0.203183 0.00608581 -0.000839714)
(0.204697 0.00634214 -0.000785053)
(0.206028 0.00658568 -0.000728628)
(0.207188 0.00681566 -0.000670968)
(0.208185 0.00703146 -0.000612547)
(0.209029 0.00723245 -0.000553855)
(0.20973 0.00741817 -0.000495321)
(0.210297 0.00758831 -0.000437305)
(0.21074 0.00774258 -0.000380175)
(0.211066 0.0078808 -0.000324262)
(0.211287 0.00800296 -0.000269827)
(0.211409 0.0081091 -0.000217132)
(0.211442 0.00819929 -0.000166393)
(0.211394 0.00827372 -0.000117661)
(0.211273 0.00833261 -7.09589e-05)
(0.211087 0.00837623 -2.63148e-05)
(0.210843 0.00840495 1.61889e-05)
(0.210548 0.00841924 5.64469e-05)
(0.210211 0.00841956 9.43524e-05)
(0.209839 0.00840648 0.00012982)
(0.209437 0.00838067 0.000162782)
(0.209011 0.00834282 0.000193174)
(0.208568 0.00829363 0.000220973)
(0.20811 0.00823376 0.000246262)
(0.207644 0.00816392 0.000269139)
(0.207172 0.00808479 0.000289735)
(0.206699 0.00799692 0.000308367)
(0.206227 0.00790083 0.00032543)
(0.20576 0.00779704 0.000341325)
(0.2053 0.00768598 0.000356283)
(0.204851 0.007568 0.00037035)
(0.204416 0.00744342 0.000383569)
(0.203998 0.00731259 0.00039594)
(0.203599 0.00717581 0.000407346)
(0.203223 0.0070334 0.000417645)
(0.202872 0.0068857 0.000426683)
(0.202549 0.00673318 0.000434249)
(0.202255 0.00657644 0.000440091)
(0.201993 0.00641606 0.000443954)
(0.201765 0.00625264 0.000445796)
(0.20157 0.0060867 0.000445956)
(0.201408 0.00591879 0.000444822)
(0.201278 0.00574943 0.000442762)
(0.20118 0.00557902 0.00043996)
(0.201112 0.00540793 0.000436539)