/*--------------------------------*- C++ -*----------------------------------*\
| =========                 |                                                 |
| \\      /  F ield         | OpenFOAM: The Open Source CFD Toolbox           |
|  \\    /   O peration     | Version:  4.x                                   |
|   \\  /    A nd           | Web:      www.OpenFOAM.org                      |
|    \\/     M anipulation  |                                                 |
\*---------------------------------------------------------------------------*/
FoamFile
{
    version     2.0;
    format      ascii;
    class       volVectorField;
    location    "98.28";
    object      U;
}
// * * * * * * * * * * * * * * * * * * * * * * * * * * * * * * * * * * * * * //

dimensions      [0 1 -1 0 0 0 0];

internalField   nonuniform List<vector> 
15625
(
(0.0004676109203849661 -8.869819459096907e-11 -8.86981945909884e-11)
(0.0012876980768993834 1.6892357496815186e-08 -1.497302824767605e-08)
(0.0020357849659109616 1.8223814758470012e-07 -7.969913866395019e-08)
(0.0027424479073629928 7.322771753000246e-07 -2.12044757226729e-07)
(0.003420247600894098 1.925347539482998e-06 -4.018028590033782e-07)
(0.004075958284732671 3.98242297086256e-06 -6.411430417653543e-07)
(0.00471372720013817 7.096604311794895e-06 -9.194300916639136e-07)
(0.0053362874267384 1.143665421848585e-05 -1.2313213254590653e-06)
(0.005945451155175818 1.7158661688594285e-05 -1.5806514061981315e-06)
(0.006542321060898043 2.445744462052779e-05 -1.973860162333122e-06)
(0.007127573811087329 3.3552752913743165e-05 -2.4177305448724317e-06)
(0.0077013796157853484 4.468686623486556e-05 -2.917719831974149e-06)
(0.008263631351826853 5.8114479316096016e-05 -3.4755231394361455e-06)
(0.008813842751500937 7.410228846288169e-05 -4.08594059618496e-06)
(0.009351349432387433 9.288292163500458e-05 -4.739041443415548e-06)
(0.009875214600036226 0.00011460862728838383 -5.416825185534146e-06)
(0.01038442339657557 0.00013938902806778086 -6.099694800446572e-06)
(0.010877863679882957 0.0001672151505744723 -6.767268847004024e-06)
(0.011354391167860304 0.00019803592007883929 -7.398749900117681e-06)
(0.011812950295267211 0.0002316648796540637 -7.975209877369325e-06)
(0.012252520898311437 0.00026783981997916966 -8.478491676198923e-06)
(0.01267221846712643 0.0003062538859011202 -8.895289321350266e-06)
(0.013071397867142575 0.0003465337778713104 -9.220621230158298e-06)
(0.013449459322468011 0.0003882868133647684 -9.450525231337655e-06)
(0.013806085229391363 0.0004310978338324664 -9.583938540687805e-06)
(0.014141099302830853 0.0004745330060586813 -9.621265493707861e-06)
(0.014454427974541459 0.0005181651252949986 -9.565000373795823e-06)
(0.014746292463935166 0.0005616150675063207 -9.423646390622938e-06)
(0.01501698320670446 0.0006045030216841619 -9.207063933758554e-06)
(0.01526690281807934 0.0006464824256248926 -8.924225160247668e-06)
(0.015496616781613216 0.0006872640751766408 -8.58255856801829e-06)
(0.01570673071076126 0.0007265576591519028 -8.18963027352576e-06)
(0.015897924332202416 0.0007641271611381735 -7.753690761624036e-06)
(0.016070954883043265 0.0007997943371162232 -7.2837052145417545e-06)
(0.016226612958167994 0.0008333811465505442 -6.788829448521736e-06)
(0.01636570120688864 0.0008647525243204711 -6.275879740639903e-06)
(0.01648903703768566 0.0008938119906341245 -5.749575759031446e-06)
(0.016597468251089202 0.0009204644520989627 -5.2147568164432156e-06)
(0.01669182719502017 0.0009446601503333175 -4.677086789844473e-06)
(0.016772933866569105 0.000966392448008397 -4.143028251059328e-06)
(0.016841637256988635 0.0009856576858421067 -3.6191972273540663e-06)
(0.016898759131008453 0.0010024738914834234 -3.1097872726187646e-06)
(0.016945083181649806 0.0010168848306204826 -2.6160658673792562e-06)
(0.01698141923745164 0.0010289381356990005 -2.139174957080413e-06)
(0.017008566658578292 0.0010386973621072384 -1.6808996930215222e-06)
(0.017027283540750175 0.0010462522559961675 -1.2441320667460905e-06)
(0.01703834968745253 0.0010516986946466098 -8.319578777612209e-07)
(0.017042523577285057 0.0010551323867001832 -4.4612303751617233e-07)
(0.01704043678519221 0.0010566401882552232 -8.401993897558495e-08)
(0.0170327149816961 0.001056310144520582 2.5789754293756555e-07)
(0.01702000139805238 0.001054232453066711 5.827189292015776e-07)
(0.017002925238950143 0.001050491193684 8.898060455630266e-07)
(0.016982123466720418 0.0010451699363650299 1.1769561802364713e-06)
(0.016958249253791993 0.001038355665210247 1.4419901008235363e-06)
(0.016931852556380512 0.0010301393501553713 1.6844500360545584e-06)
(0.01690339024490473 0.001020615994536551 1.9054629181150654e-06)
(0.016873331289437833 0.0010098843110436584 2.1062526629357775e-06)
(0.01684211671853937 0.0009980478155252504 2.287365451205817e-06)
(0.016810108715586698 0.0009852161003319555 2.447832531465444e-06)
(0.016777670057661235 0.0009715031070484251 2.5864633172391563e-06)
(0.01674515297397213 0.0009570192356048818 2.7029211101348812e-06)
(0.016712782950961094 0.0009418323991229935 2.8022059360503734e-06)
(0.016680741358642583 0.0009259957208105771 2.8914851932395788e-06)
(0.016649216334868367 0.0009095631597052106 2.9779853016656676e-06)
(0.016618421756560236 0.0008925629111482966 3.0645681168492422e-06)
(0.016588598577399537 0.0008749957577127972 3.149454995611295e-06)
(0.016559996501306774 0.0008568613989111847 3.230592903710463e-06)
(0.01653286502925516 0.0008381652594668591 3.30629550439699e-06)
(0.016507437065079164 0.000818929645843397 3.3761152163540287e-06)
(0.01648394829038996 0.0007991808486686188 3.4398306825187363e-06)
(0.0164626398445277 0.0007789503796276064 3.4968669918489554e-06)
(0.016443740940857904 0.000758313941794772 3.5430401094255056e-06)
(0.01642747630824745 0.0007373753228061131 3.5719053779186678e-06)
(0.016414075628986165 0.000716242141019783 3.576847450486512e-06)
(0.01640364650209182 0.0006950164824713498 3.556590310440987e-06)
(0.01639607765456054 0.0006737880338334185 3.5193711675535786e-06)
(0.0163912312261984 0.0006526479562402077 3.4746530731804183e-06)
(0.016388980551163182 0.0006316778634233038 3.4307382495790705e-06)
(0.01638928737929685 0.0006108920477600288 3.3879544219240796e-06)
(0.016392143609711824 0.0005902810140488523 3.343787681403313e-06)
(0.016397537985735348 0.0005698348132006629 3.295806096661235e-06)
(0.016405410042732497 0.0005495424767393712 3.245528953475847e-06)
(0.016415647416105038 0.0005293919734310747 3.1986482519897537e-06)
(0.01642813095685298 0.0005093707643560717 3.1612304830310696e-06)
(0.01644280973991412 0.0004894671570937953 3.1357233568347805e-06)
(0.016459845662709773 0.00046967295015801273 3.113389312649774e-06)
(0.01647944478959382 0.0004499803273142773 3.083127604897155e-06)
(0.016501798507812585 0.00043038955778591483 3.034687356379632e-06)
(0.01652690834349599 0.00041097976548293893 2.968976046944247e-06)
(0.016554667790508484 0.00039187594365780703 2.893243393651225e-06)
(0.01658496410154288 0.0003732061145059247 2.814961513350428e-06)
(0.016617650444762287 0.0003550308561274446 2.7375954973011883e-06)
(0.016652532774617333 0.0003373116698859112 2.6587214628272786e-06)
(0.016689406589568856 0.0003200009914211907 2.575382606072197e-06)
(0.01672807976598833 0.000303076185815443 2.4856156859281787e-06)
(0.016768425523068405 0.00028661045364447 2.391351513424944e-06)
(0.016810328619201943 0.00027070121397006344 2.295484251283749e-06)
(0.016853665570536587 0.0002554359625025362 2.2009190883758245e-06)
(0.016898271744438274 0.00024078018506376022 2.1098160840530785e-06)
(0.016943956177575225 0.00022662847832348717 2.023937772012786e-06)
(0.01699052080056544 0.0002128734580745345 1.945026639672494e-06)
(0.017037759017187043 0.00019948321194167314 1.8725976156602308e-06)
(0.01708545521795727 0.00018651792270859226 1.8034578228627588e-06)
(0.017133386238913507 0.00017404482976890695 1.7341564677065004e-06)
(0.017181323932265367 0.00016209396627391023 1.662524562484595e-06)
(0.01722903859866336 0.00015060478097978625 1.5895740714339372e-06)
(0.01727629370905705 0.0001395015343936767 1.5168128259860375e-06)
(0.017322851170898386 0.00012874230315407267 1.4446120365859485e-06)
(0.017368492873904413 0.00011844509610095603 1.368106071970738e-06)
(0.017413001317528622 0.00010877636901812791 1.2808152526679593e-06)
(0.01745614931338366 9.988075759636773e-05 1.1782735057165665e-06)
(0.017497681384998447 9.16958669649079e-05 1.073186505701086e-06)
(0.01753732409064138 8.405779977414644e-05 9.868032842898355e-07)
(0.017574817117561623 7.679774847779198e-05 9.391773440114827e-07)
(0.01761017000745563 6.975923772766593e-05 9.26067883781769e-07)
(0.017643585523931915 6.279297028633372e-05 9.258220901406288e-07)
(0.01767525430224216 5.575704414151165e-05 9.166211283737196e-07)
(0.017704921615062114 4.874065667785094e-05 8.935259847455542e-07)
(0.017731915377708244 4.204948059002372e-05 8.67376261431042e-07)
(0.01775554120705348 3.5979315768821154e-05 8.496085679155557e-07)
(0.017775443174466332 3.0133928532095008e-05 8.433680920962448e-07)
(0.01779163568508751 2.3362275767865673e-05 8.427386521406576e-07)
(0.017804153082882714 1.4439111302285185e-05 8.411643411064463e-07)
(0.01781303218314163 2.0981417245650926e-06 8.318659711875674e-07)
(0.017818312339971252 -1.4968933998380095e-05 8.078358229710561e-07)
(0.0012876980768993839 -1.4973028247676037e-08 1.689235749681504e-08)
(0.0036773373084612567 -7.543507118328084e-08 -7.543507118328076e-08)
(0.0059012029035843275 1.623601864730497e-07 -5.764401834188586e-07)
(0.008013539496965379 1.2871322309352554e-06 -1.594930479271109e-06)
(0.010044082420024502 3.9701256155763405e-06 -3.1116984772188382e-06)
(0.012010617799256901 8.83240242440637e-06 -5.058174255242906e-06)
(0.013924554607784356 1.6461512446307444e-05 -7.380865138028944e-06)
(0.015793594293953963 2.741706692012066e-05 -1.0056710838349527e-05)
(0.017622907115697885 4.2247318897569075e-05 -1.3094506650066043e-05)
(0.01941564734877041 6.156798712719662e-05 -1.654158511738595e-05)
(0.021173739280746735 8.60394025750311e-05 -2.0447230892506157e-05)
(0.022897620236953273 0.0001163583747786324 -2.4828426086794845e-05)
(0.02458690675088862 0.00015321972414373826 -2.967570538143879e-05)
(0.026240090764659683 0.00019728967868165776 -3.493869235826853e-05)
(0.02785513258980766 0.00024913685410385644 -4.053014112227928e-05)
(0.029429179357336556 0.0003091168924654881 -4.6297222646272344e-05)
(0.03095914712456348 0.0003774691815742148 -5.2076236382506885e-05)
(0.03244167171447366 0.0004541110525686276 -5.770465029327282e-05)
(0.03387329546543094 0.0005388496659924732 -6.301815588728558e-05)
(0.0352508358002836 0.0006311721797676383 -6.786676909369036e-05)
(0.03657122097117587 0.0007303851921733349 -7.210634889420563e-05)
(0.0378317940151278 0.0008356763099894769 -7.563035985676034e-05)
(0.03903062908564814 0.0009460556760487931 -7.839685959805215e-05)
(0.040165937984583254 0.0010604833657711149 -8.03720886166977e-05)
(0.04123677950283335 0.0011778720252960727 -8.154763459054471e-05)
(0.0422426368563315 0.001297091135732368 -8.192791607240145e-05)
(0.0431833026690046 0.0014170210941876018 -8.153323756001633e-05)
(0.04405945672793603 0.0015366489650034854 -8.042941507555455e-05)
(0.044871987419627085 0.0016549558630654113 -7.8692631652774e-05)
(0.045622117288550465 0.0017710111891639502 -7.639402627030033e-05)
(0.04631155352552123 0.0018840368546286436 -7.359558661701064e-05)
(0.0469421236323216 0.0019932510243512915 -7.0360722469538e-05)
(0.04751587533188185 0.00209800457576732 -6.675750296987271e-05)
(0.04803508662376556 0.0021977896822861164 -6.285884828645977e-05)
(0.048502135568629666 0.002292097981759195 -5.873927636438426e-05)
(0.04891943425970502 0.002380545618496006 -5.445585620621658e-05)
(0.04928943715140028 0.0024628605294849054 -5.005004492147209e-05)
(0.049614689869552295 0.002538773425067634 -4.556427484072137e-05)
(0.049897691286369034 0.00260812070819961 -4.104474875107019e-05)
(0.0501409028499191 0.002670839223466549 -3.6541370217687833e-05)
(0.05034687300000175 0.0027268721261574304 -3.210522660873845e-05)
(0.05051806748889339 0.0027762307253342573 -2.7771411443325786e-05)
(0.05065683664162173 0.0028190075374178226 -2.355565697915887e-05)
(0.050765609128107514 0.002855305369933007 -1.947307150329219e-05)
(0.05084678395823406 0.0028852667872442746 -1.5541335736943352e-05)
(0.05090263942883196 0.002909099995895594 -1.1782311422894186e-05)
(0.05093551940563422 0.0029270282552518916 -8.218894869846989e-06)
(0.050947702858602194 0.0029392820953727606 -4.865111201848792e-06)
(0.05094108485953399 0.002946094456629242 -1.706012512874167e-06)
(0.050917542152308926 0.0029477067134356504 1.2795398162891421e-06)
(0.050879004282749274 0.0029443659604681074 4.110085640428704e-06)
(0.05082735952173907 0.0029363010002203126 6.782646314676475e-06)
(0.0507645197659162 0.002923738604198878 9.28523812872014e-06)
(0.050692445728156996 0.0029069149356859597 1.1605971830399288e-05)
(0.050612791230143304 0.0028860780615647154 1.3741325890591866e-05)
(0.05052693338961672 0.0028614880075341744 1.569548025254633e-05)
(0.050436285910946566 0.0028334150355315154 1.747307526372905e-05)
(0.05034217564256558 0.0028021409284717715 1.907623964141003e-05)
(0.050245686107674215 0.002767960526627663 2.050144274628253e-05)
(0.050147901625762166 0.002731180008047191 2.174435941022548e-05)
(0.05004987535082143 0.0026920971114086562 2.280664208222117e-05)
(0.049952283790140516 0.0026509015247766113 2.372656129306333e-05)
(0.04985567248449885 0.0026077457535961263 2.4557348852483778e-05)
(0.04976060739387177 0.0025627851645748873 2.5352721929275424e-05)
(0.049667733269908726 0.0025161112265745878 2.6135033999447642e-05)
(0.049577777763183326 0.0024677473896785444 2.6893289526757568e-05)
(0.04949149500495558 0.0024177152072345884 2.7614582364001823e-05)
(0.04940963599352748 0.0023660522220028874 2.8287512037800972e-05)
(0.04933289401391951 0.0023128415497387454 2.8906051526955483e-05)
(0.04926196901673973 0.002258177721654627 2.9465050315332196e-05)
(0.04919757812328854 0.0022021675071188314 2.9957065508101657e-05)
(0.049140413189609856 0.0021450100593612582 3.035236852501393e-05)
(0.04909115909811468 0.0020869638423951773 3.060722258633863e-05)
(0.049050515929933196 0.002028296827386387 3.06767615724464e-05)
(0.049018809650862145 0.0019692685402072974 3.055263711608469e-05)
(0.04899569556066561 0.0019101169415957572 3.029155058011115e-05)
(0.048980747430433194 0.0018510850908337374 2.995860360072835e-05)
(0.04897357513413592 0.0017923935225510326 2.9611812062809414e-05)
(0.04897406984822471 0.0017340994884698518 2.9259330828062836e-05)
(0.048982219064796315 0.001676203052676806 2.8891685709864752e-05)
(0.048998000761205765 0.0016187036799253259 2.8499965931134475e-05)
(0.04902123494935454 0.0015615923516286098 2.8096280131977002e-05)
(0.049051575014201015 0.001504851102343267 2.7714930271918135e-05)
(0.04908865317064075 0.0014484607929787792 2.7392335973112007e-05)
(0.04913231053811238 0.0013924101893426034 2.714151439610775e-05)
(0.04918304001104304 0.0013367132566371985 2.6903334381614455e-05)
(0.049241469705850846 0.0012813889741466532 2.6603346655186106e-05)
(0.049308182991959215 0.0012264720999423252 2.617276595168828e-05)
(0.04938318410935298 0.0011721421405097316 2.5617281077664015e-05)
(0.049466147781108284 0.0011186632739115516 2.4984906609095417e-05)
(0.04955672989396459 0.0010663060923493213 2.4325176361425763e-05)
(0.04965449052526359 0.0010152090034333179 2.366292336952988e-05)
(0.049758857494796666 0.0009653159966901853 2.298662757711307e-05)
(0.049869228289850666 0.0009165537724308645 2.2281589001126188e-05)
(0.04998503054148682 0.0008688900388545954 2.1538577395414998e-05)
(0.05010586139487912 0.0008224501837293038 2.076965514814931e-05)
(0.05023134581164185 0.0007773994291560026 1.999219197805227e-05)
(0.05036108778495089 0.0007338860023246107 1.9223680598629608e-05)
(0.05049461248651112 0.0006918511216011926 1.8477692588142503e-05)
(0.05063139208636128 0.0006511156506360763 1.7765739695661924e-05)
(0.05077087789719458 0.0006114972998697059 1.7099179181459956e-05)
(0.05091245547610173 0.0005729538239033058 1.6473904263928157e-05)
(0.05105543440976348 0.0005356137859712278 1.5867014733995886e-05)
(0.05119909742263416 0.0004996192466653918 1.5253798477611387e-05)
(0.05134273509024887 0.0004650475139196192 1.4618566696119048e-05)
(0.051485689291326776 0.0004318173526265962 1.396803991345368e-05)
(0.05162729052197681 0.0003998214956558258 1.3312421697715407e-05)
(0.05176685367780085 0.00036901162176923797 1.265490704224067e-05)
(0.05190370036593835 0.00033961601491542853 1.196628706794021e-05)
(0.05203713822141377 0.0003119471787691775 1.1207388738019569e-05)
(0.052166450303504336 0.00028627314294063077 1.0352862194345743e-05)
(0.05229087898838571 0.0002624472634590319 9.4940229697992e-06)
(0.05240963431379195 0.0002401191185599925 8.780317679680419e-06)
(0.05252196525659521 0.000218923446340158 8.352795932333755e-06)
(0.05262791093584927 0.00019846631381926138 8.181987114198618e-06)
(0.05272807635900657 0.000178329154743833 8.116208229836561e-06)
(0.05282302953795041 0.00015811183446220802 8.002411458621903e-06)
(0.052911998229945856 0.00013803605741720927 7.80209686162849e-06)
(0.05299295419737653 0.00011890596015616786 7.583824640961473e-06)
(0.053063802029390476 0.00010150032448260528 7.420239278415425e-06)
(0.05312346792064564 8.478169313569539e-05 7.33256738433446e-06)
(0.05317199589707242 6.573161132793841e-05 7.2858391605314415e-06)
(0.05320949016651453 4.1136923653857114e-05 7.24117117384428e-06)
(0.05323606239376476 7.676794638352919e-06 7.1583529796475505e-06)
(0.05325183190407663 -3.807981092291627e-05 6.995815895820144e-06)
(0.0020357849659109616 -7.969913866395022e-08 1.8223814758470044e-07)
(0.005901202903584328 -5.764401834188585e-07 1.6236018647304958e-07)
(0.00955646698184604 -9.386636717661573e-07 -9.38663671766157e-07)
(0.013052947840340877 -2.51175989348543e-07 -3.3563129248113197e-06)
(0.016425560107518923 2.5030596331093234e-06 -7.0922766741545485e-06)
(0.019697925124565915 8.306966808399514e-06 -1.2001001246609208e-05)
(0.022886246897294984 1.8136570375257713e-05 -1.7999828800119973e-05)
(0.026001871365184573 3.296518406614154e-05 -2.5060949065342463e-05)
(0.029052577355801835 5.3775619045088945e-05 -3.3192412727286094e-05)
(0.03204310257240901 8.162967748086508e-05 -4.2495865254422255e-05)
(0.034976280283735915 0.00011763051935311463 -5.306760418601754e-05)
(0.0378525841438701 0.00016288846576069317 -6.489698057276891e-05)
(0.040671164918318466 0.00021846626677630713 -7.79104402418491e-05)
(0.04342935360129231 0.0002853121785021991 -9.194753384892578e-05)
(0.04612362208984136 0.00036421064645115927 -0.00010676177568079637)
(0.04874913466673166 0.00045560869107260364 -0.00012195287785322115)
(0.051300688028269203 0.000559775979309629 -0.00013709829711611453)
(0.053772656154711204 0.0006765025718180144 -0.00015179196641934393)
(0.056159270347684066 0.0008054179331666838 -0.00016562681322508348)
(0.05845525401446315 0.0009457226969763044 -0.0001782358059135777)
(0.060655533695392956 0.001096373442760887 -0.0001892688322613095)
(0.06275573344254788 0.001256160193083599 -0.00019846558466226486)
(0.06475270474096524 0.001423626101448658 -0.00020572006479361375)
(0.06664353189478822 0.0015972440998022251 -0.0002109465679066022)
(0.06842671782035814 0.0017754352240082823 -0.00021412702331804912)
(0.07010147758865458 0.0019565663634843167 -0.00021527765093309832)
(0.0716675331158671 0.0021390147091511027 -0.0002144511725565926)
(0.07312605392933694 0.002321295523477134 -0.0002118042634107953)
(0.07447855245572339 0.0025019117600204852 -0.0002075175938307594)
(0.07572709812949892 0.0026794895112607436 -0.00020176499619276847)
(0.0768745677019344 0.0028528689245827716 -0.00019470642139782422)
(0.07792403846895665 0.003020882853815749 -0.0001865061651998088)
(0.07887893446950836 0.0031825501631201386 -0.00017733692603982772)
(0.07974304203114033 0.0033370878409932736 -0.00016738008856680424)
(0.08052031301230927 0.0034837105087993122 -0.0001568211042519259)
(0.08121475812975788 0.0036218164003477236 -0.00014580629855399517)
(0.08183046060180223 0.003750968470761301 -0.00013444706453731914)
(0.08237165514940632 0.0038707321370341444 -0.00012285728535495248)
(0.08284249355469904 0.003980819074564639 -0.00011115344502563655)
(0.08324706041686793 0.00408107982077718 -9.945478307868489e-05)
(0.08358958458816763 0.004171372185123172 -8.788334647713232e-05)
(0.08387415802894096 0.00425165689875785 -7.652906420468269e-05)
(0.08410468152705074 0.004322017658074643 -6.544287297756354e-05)
(0.08428518601455977 0.004382551969483175 -5.4675007813275554e-05)
(0.08441965457231207 0.004433419637529428 -4.427735821120608e-05)
(0.08451187229083783 0.004474885000094243 -3.430355305206055e-05)
(0.08456573351674067 0.004507234197765505 -2.480889010913031e-05)
(0.08458502899518827 0.004530770388546611 -1.5830000447560367e-05)
(0.0845729245839156 0.004545822544619462 -7.342099232687552e-06)
(0.08453255876607103 0.00455273620544781 6.925548885999123e-07)
(0.08446715480983724 0.0045518670574024485 8.307129742629662e-06)
(0.08437984385345655 0.004543556137037054 1.549651555466366e-05)
(0.08427378636193084 0.004528146803507085 2.2239619471339075e-05)
(0.08415222498605254 0.004505996679897016 2.8515429496890466e-05)
(0.08401792208155608 0.004477480095630762 3.431511062841984e-05)
(0.08387320758024946 0.004442988281014765 3.964103064021377e-05)
(0.08372047446005876 0.00440292793233337 4.449619331237469e-05)
(0.08356195097970806 0.004357721597427706 4.8882355847835774e-05)
(0.08339941544039546 0.004307808142868231 5.279828448305074e-05)
(0.08323464081474571 0.004253643018186248 5.6242462145146555e-05)
(0.08306935451370821 0.004195671051284448 5.9226556689866885e-05)
(0.08290470059136879 0.004134187365224403 6.184150150502049e-05)
(0.08274162230567675 0.004069436378509936 6.421080180666982e-05)
(0.08258109744225157 0.004001667768478003 6.645920780596724e-05)
(0.08242421925115288 0.003931043499178888 6.864132066486225e-05)
(0.08227220227923995 0.0038576321122675825 7.073714571054858e-05)
(0.08212630447180197 0.003781500874489883 7.272257328733876e-05)
(0.08198777505284086 0.0037027391230267798 7.457421611162795e-05)
(0.08185775646554151 0.0036214962886982377 7.627240944469231e-05)
(0.08173739987849184 0.0035379380756507006 7.7797700269167e-05)
(0.08162788500617324 0.0034522466269880244 7.912609144734397e-05)
(0.08153035352696442 0.003364714777443361 8.01921665286428e-05)
(0.08144593783488067 0.0032757072299685447 8.090434609635887e-05)
(0.08137579550899986 0.003185602068279573 8.116875660281674e-05)
(0.08132046881121469 0.003094769697943106 8.096863837157387e-05)
(0.08127939681972202 0.003003557472193756 8.04245601028862e-05)
(0.08125188465105047 0.002912321101973132 7.967486842973768e-05)
(0.08123729717477908 0.002821388097361773 7.884498160251765e-05)
(0.08123546327811876 0.0027308733405841815 7.796617801364658e-05)
(0.08124637088426828 0.0026408181519072824 7.703681285757282e-05)
(0.08126999246969903 0.00255126410045202 7.605641903316233e-05)
(0.08130604018254467 0.0024622340802111673 7.505415259432101e-05)
(0.08135395156013682 0.002373731238420903 7.409043388487584e-05)
(0.08141312947835952 0.0022857576578170983 7.322904657518453e-05)
(0.08148331601691972 0.002198332587342256 7.248854143216191e-05)
(0.08156531178044571 0.0021115268531457067 7.174845307263099e-05)
(0.08166013689316065 0.0020254227713533894 7.085862608511828e-05)
(0.08176873846096716 0.0019401174266289686 6.96803831823518e-05)
(0.08189112072939474 0.0018558262481084297 6.822569451930393e-05)
(0.08202675138340271 0.0017728348327568388 6.659215818015863e-05)
(0.08217506752313576 0.0016914357018187115 6.488054554611789e-05)
(0.0823353627856471 0.0016117955411848752 6.3145237397947e-05)
(0.08250673362891571 0.0015338955455298656 6.137222527244095e-05)
(0.08268822931490934 0.0014577012839000387 5.954176316260912e-05)
(0.08287891688223559 0.0013832035736012639 5.764363794494336e-05)
(0.08307802252576275 0.0013104904092465885 5.570421369842358e-05)
(0.08328478722112331 0.0012396743016290894 5.3759118687913343e-05)
(0.08349843406234393 0.001170855576418635 5.184349112847341e-05)
(0.0837182576310914 0.0011039909395584877 4.997733505438458e-05)
(0.08394358231155187 0.0010389533977225092 4.817222762193504e-05)
(0.08417370005150741 0.0009756147188644125 4.6439239582205624e-05)
(0.08440761842827345 0.000913987130411913 4.4765419694858324e-05)
(0.0846440054803848 0.0008542538675606625 4.310866505132518e-05)
(0.08488146644478207 0.000796613156029106 4.1423865232945925e-05)
(0.08511871322362154 0.0007411937830081577 3.9682553528823835e-05)
(0.08535477302748248 0.0006879527590740417 3.7897569427371215e-05)
(0.08558869139746 0.0006368199722905105 3.608818988537051e-05)
(0.0858194440006138 0.0005877787387315621 3.426122731063038e-05)
(0.08604580360623557 0.000541061180566067 3.236571650603271e-05)
(0.08626645615316945 0.0004969755520763263 3.033295594317824e-05)
(0.0864800703409281 0.0004557805999751931 2.8123310460326214e-05)
(0.08668546895748847 0.0004172843965636076 2.5939330059395264e-05)
(0.08688152988426254 0.000381072824498634 2.4104465592705898e-05)
(0.08706718695334521 0.0003467085217245301 2.2923979506961137e-05)
(0.08724249156948309 0.00031364817199063964 2.233439369411891e-05)
(0.08740829563693535 0.0002812669843710091 2.2007951187034357e-05)
(0.08756538886139587 0.0002489654899722567 2.1613490739463505e-05)
(0.08771246872585219 0.000217049039818075 2.1058909642486658e-05)
(0.08784627176356567 0.00018667040822397237 2.0475501851158282e-05)
(0.08796342723541736 0.0001589459546473799 2.000318937389801e-05)
(0.08806216946782675 0.0001323765735731133 1.9686712142508887e-05)
(0.08814248919640118 0.00010261045027147461 1.9466770143583265e-05)
(0.08820446948304954 6.501517152225667e-05 1.9276987446541655e-05)
(0.0882482027090487 1.480302163899723e-05 1.904871339912257e-05)
(0.08827379084095703 -5.297265197118755e-05 1.8710969032739287e-05)
(0.002742447907362993 -2.1204475722672892e-07 7.322771753000237e-07)
(0.00801353949696538 -1.594930479271109e-06 1.2871322309352556e-06)
(0.013052947840340876 -3.356312924811319e-06 -2.511759893485424e-07)
(0.017904085052350218 -4.239328244440647e-06 -4.2393282444406475e-06)
(0.022600483457236746 -2.90645908249592e-06 -1.0701670576836526e-05)
(0.02716718109208489 1.9729162105864533e-06 -1.944195821122812e-05)
(0.0316224684766147 1.1747939755721122e-05 -3.0373085842980756e-05)
(0.03597962856455686 2.780270080862075e-05 -4.3482836937743876e-05)
(0.040247961883564456 5.156604077370229e-05 -5.87925665031833e-05)
(0.04443305154539426 8.453788285932656e-05 -7.644435179159542e-05)
(0.04853808638094985 0.00012824242755333603 -9.65496849151238e-05)
(0.05256321856359539 0.00018416525436515803 -0.00011901870555399899)
(0.05650684650593829 0.0002536837269937508 -0.00014364517682779126)
(0.060364936365396464 0.0003379518430837513 -0.00017006475194256615)
(0.0641323304435811 0.0004378894693386363 -0.00019777624009439306)
(0.06780218563131345 0.0005539533505385515 -0.00022604156174013196)
(0.07136718554647875 0.0006863715296967322 -0.00025409101391110666)
(0.07481950469279033 0.0008347733957691143 -0.0002811973252762727)
(0.07815114830282961 0.0009985906032800918 -0.00030663658292484413)
(0.08135490752184346 0.001176765290791178 -0.0003297768677063361)
(0.08442391214063104 0.0013679585655039415 -0.0003500275399796225)
(0.08735226421142604 0.0015706473739379326 -0.00036694699284780315)
(0.09013577150895886 0.0017830400012493728 -0.0003803496652642974)
(0.09277057148624836 0.0020032634729205525 -0.00039008511776321745)
(0.09525477994977367 0.002229396734998448 -0.000396128468128888)
(0.09758750942356999 0.0024594604123211665 -0.00039851861397387017)
(0.09976855720237852 0.002691485380883561 -0.0003973539222918427)
(0.10179966110551086 0.002923663386839114 -0.000392900932177248)
(0.10368302516547626 0.003154169586427106 -0.0003854655752605599)
(0.10542161265743774 0.0033813209044753815 -0.00037534929491003154)
(0.10701948423621845 0.003603682489375124 -0.0003628408487340436)
(0.10848097765069009 0.0038198083789609846 -0.0003482376357763424)
(0.10981087705345696 0.004028469078214649 -0.0003318460624943362)
(0.11101443247250159 0.004228665759708218 -0.0003139816957410899)
(0.11209712202409199 0.004419394449113136 -0.00029496731855411227)
(0.11306450753522096 0.004599868807827689 -0.00027506471849579405)
(0.11392225328987887 0.004769497468597403 -0.00025448136233418575)
(0.114676233393107 0.004927689718325311 -0.00023342923042007384)
(0.11533219609902971 0.005074027057224492 -0.00021211501851888694)
(0.11589578616793587 0.005208254316054475 -0.00019074088626916635)
(0.11637284767784754 0.005330122733727652 -0.00016951375113029104)
(0.11676903891453375 0.005439509849823138 -0.00014859603527827485)
(0.1170897579645395 0.005536444519754354 -0.00012809592350103007)
(0.11734058348403886 0.005620970401661497 -0.0001081217135389921)
(0.11752702774891752 0.005693213774680363 -8.877783896974618e-05)
(0.11765432857856425 0.005753441853572339 -7.015937576666277e-05)
(0.11772787515334532 0.005801948309789936 -5.236309795294992e-05)
(0.11775292649459496 0.005839052982383001 -3.545771930698493e-05)
(0.11773391733805252 0.005865127434427757 -1.9418746530154544e-05)
(0.11767525417534519 0.005880566815126955 -4.202347258818312e-06)
(0.11758145430285458 0.005885781395080558 1.0229711540223371e-05)
(0.11745685140038317 0.005881185263858688 2.386869709450311e-05)
(0.11730579642463472 0.005867204512302231 3.668627545580679e-05)
(0.11713275663788304 0.005844283352370323 4.865403469359069e-05)
(0.11694159471836772 0.005812890478694086 5.975487618639753e-05)
(0.11673563041314107 0.005773519049602277 6.998209562876778e-05)
(0.11651827570518981 0.005726681972565213 7.932947432539321e-05)
(0.1162926737006975 0.005672909876195499 8.779548886496046e-05)
(0.11606125270349167 0.005612748902311017 9.538861093467431e-05)
(0.11582642061792128 0.005546765361823398 0.00010211915383147165)