/*--------------------------------*- C++ -*----------------------------------*\
| =========                 |                                                 |
| \\      /  F ield         | OpenFOAM: The Open Source CFD Toolbox           |
|  \\    /   O peration     | Version:  4.x                                   |
|   \\  /    A nd           | Web:      www.OpenFOAM.org                      |
|    \\/     M anipulation  |                                                 |
\*---------------------------------------------------------------------------*/
FoamFile
{
    version     2.0;
    format      ascii;
    class       volVectorField;
    location    "98.28";
    object      U;
}
// * * * * * * * * * * * * * * * * * * * * * * * * * * * * * * * * * * * * * //

dimensions      [0 1 -1 0 0 0 0];

internalField   nonuniform List<vector> 
15625
(
(0.00099359 -1.27937e-15 -1.27951e-15)
(0.00254 -1.9374e-15 -6.85285e-16)
(0.00395335 -9.62232e-16 -2.10515e-16)
(0.005288 -5.09266e-16 -9.732e-17)
(0.00656092 -3.20147e-16 -5.44658e-17)
(0.00777473 -2.21381e-16 -2.9881e-17)
(0.00892741 -1.63501e-16 -1.68322e-17)
(0.0100169 -1.28451e-16 -1.02461e-17)
(0.011043 -1.0604e-16 -6.77751e-18)
(0.0120073 -9.06361e-17 -4.80041e-18)
(0.0129128 -7.92411e-17 -3.6492e-18)
(0.0137636 -7.04944e-17 -2.91112e-18)
(0.0145639 -6.35976e-17 -2.37486e-18)
(0.0153181 -5.79856e-17 -2.00754e-18)
(0.0160303 -5.33471e-17 -1.65964e-18)
(0.0167044 -4.94001e-17 -1.53196e-18)
(0.0173437 -4.60246e-17 -1.25009e-18)
(0.0179514 -4.31344e-17 -1.11464e-18)
(0.0185301 -4.04656e-17 -1.01209e-18)
(0.0190824 -3.81116e-17 -8.72503e-19)
(0.0196104 -3.61936e-17 -7.66084e-19)
(0.020116 -3.45718e-17 -7.85793e-19)
(0.0206009 -3.31095e-17 -6.78386e-19)
(0.0210667 -3.17291e-17 -5.61986e-19)
(0.0215146 -3.04093e-17 -5.27069e-19)
(0.0219459 -2.91986e-17 -5.60903e-19)
(0.0223617 -2.81614e-17 -4.80282e-19)
(0.022763 -2.71869e-17 -4.68279e-19)
(0.0231507 -2.62237e-17 -4.07445e-19)
(0.0235256 -2.5361e-17 -3.08898e-19)
(0.0238884 -2.45692e-17 -4.17186e-19)
(0.0242398 -2.37584e-17 -4.38105e-19)
(0.0245804 -2.29622e-17 -3.98221e-19)
(0.0249108 -2.22845e-17 -2.99948e-19)
(0.0252315 -2.15775e-17 -3.6004e-19)
(0.025543 -2.09205e-17 -2.91744e-19)
(0.0258457 -2.04581e-17 -2.9755e-19)
(0.0261401 -2.00188e-17 -3.29576e-19)
(0.0264264 -1.95348e-17 -3.6149e-19)
(0.0267052 -1.90882e-17 -3.72876e-19)
(0.0269767 -1.86821e-17 -3.44704e-19)
(0.0272412 -1.80754e-17 -3.76698e-19)
(0.027499 -1.74391e-17 -3.47669e-19)
(0.0277504 -1.70346e-17 -3.07081e-19)
(0.0279956 -1.66814e-17 -4.72707e-19)
(0.0282349 -1.6244e-17 -2.87759e-19)
(0.0284684 -1.59008e-17 -4.56795e-19)
(0.0286964 -1.56682e-17 -4.0223e-19)
(0.0289191 -1.5417e-17 -3.36629e-19)
(0.0291367 -1.49478e-17 -4.43608e-19)
(0.0293493 -1.4274e-17 -3.96396e-19)
(0.0295571 -1.3842e-17 -4.09136e-19)
(0.0297602 -1.36353e-17 -3.57895e-19)
(0.0299589 -1.33084e-17 -3.99196e-19)
(0.0301531 -1.29142e-17 -2.42113e-19)
(0.0303432 -1.24599e-17 -4.07314e-19)
(0.0305291 -1.19727e-17 -2.70664e-19)
(0.030711 -1.1586e-17 -2.89073e-19)
(0.030889 -1.12169e-17 -3.20553e-19)
(0.0310632 -1.088e-17 -3.48851e-19)
(0.0312337 -1.0782e-17 -2.4665e-19)
(0.0314007 -1.06725e-17 -3.06633e-19)
(0.0315641 -1.0282e-17 -4.27474e-19)
(0.031724 -9.85945e-18 -1.88236e-19)
(0.0318807 -9.63414e-18 -1.0573e-19)
(0.032034 -9.56237e-18 -1.41287e-19)
(0.0321841 -9.36011e-18 -2.02128e-19)
(0.0323311 -8.96568e-18 -2.49977e-19)
(0.032475 -8.58697e-18 -1.68819e-19)
(0.0326159 -8.41914e-18 -7.76858e-20)
(0.0327539 -8.3627e-18 -1.36991e-19)
(0.0328889 -8.20886e-18 -8.63804e-20)
(0.033021 -7.98497e-18 -1.87605e-19)
(0.0331504 -8.02282e-18 -8.02821e-20)
(0.0332769 -8.32935e-18 4.97028e-20)
(0.0334008 -8.20436e-18 -5.26089e-20)
(0.033522 -7.75839e-18 -1.42629e-19)
(0.0336405 -7.22839e-18 -3.32695e-19)
(0.0337564 -6.80521e-18 -3.48003e-19)
(0.0338697 -6.86266e-18 5.0543e-20)
(0.0339805 -6.87919e-18 -1.38109e-21)
(0.0340887 -6.80041e-18 -1.52187e-20)
(0.0341944 -6.39639e-18 -1.36863e-19)
(0.0342977 -5.87009e-18 -3.40309e-20)
(0.0343985 -5.90732e-18 -1.54809e-19)
(0.034497 -6.01396e-18 -3.8974e-19)
(0.0345929 -5.49812e-18 -2.19016e-19)
(0.0346865 -4.70682e-18 -3.38914e-19)
(0.0347778 -4.21201e-18 -1.64127e-19)
(0.0348666 -3.94754e-18 -1.3862e-19)
(0.0349531 -3.93821e-18 -2.82435e-19)
(0.0350373 -3.8789e-18 -2.25947e-19)
(0.0351191 -3.70436e-18 -2.09828e-19)
(0.0351987 -3.7372e-18 -1.61587e-19)
(0.0352759 -3.80263e-18 -3.78614e-19)
(0.0353507 -3.32982e-18 -4.35319e-19)
(0.0354233 -2.4372e-18 -6.09332e-19)
(0.0354936 -2.09982e-18 -1.47798e-19)
(0.0355615 -2.15739e-18 -9.53999e-20)
(0.0356272 -2.10368e-18 1.09889e-19)
(0.0356905 -1.85947e-18 -6.16335e-20)
(0.0357515 -1.44355e-18 -3.23611e-19)
(0.0358102 -1.10206e-18 -2.60325e-19)
(0.0358666 -1.40211e-18 -2.13546e-19)
(0.0359206 -1.92917e-18 -5.46883e-19)
(0.0359722 -1.76435e-18 -6.26627e-19)
(0.0360215 -2.10376e-18 -8.11452e-20)
(0.0360685 -2.71126e-18 -2.25628e-19)
(0.036113 -2.72423e-18 -2.50446e-19)
(0.0361551 -2.68587e-18 -3.38807e-19)
(0.0361948 -2.91721e-18 -3.25098e-19)
(0.0362321 -2.81075e-18 -3.4507e-19)
(0.0362669 -2.17685e-18 -1.62538e-19)
(0.0362992 -1.91939e-18 -3.78792e-20)
(0.036329 -1.92363e-18 -7.29955e-20)
(0.0363562 -2.09427e-18 8.65218e-20)
(0.0363809 -1.99733e-18 1.43587e-19)
(0.036403 -1.06166e-18 1.18545e-20)
(0.0364224 -2.38905e-19 3.12886e-19)
(0.0364392 1.13842e-19 2.90067e-19)
(0.0364533 3.06436e-19 1.19149e-19)
(0.0364647 3.69175e-19 1.36262e-19)
(0.0364733 4.43286e-20 2.23334e-19)
(0.036479 1.46299e-19 -5.48342e-20)
(0.0364819 2.74936e-19 1.86903e-19)
(0.00254 -6.84786e-16 -1.93766e-15)
(0.00678838 -1.40292e-15 -1.40218e-15)
(0.0107419 -1.07911e-15 -7.42025e-16)
(0.0144697 -7.80853e-16 -4.12904e-16)
(0.017996 -5.81447e-16 -2.34458e-16)
(0.0213243 -4.45432e-16 -1.34665e-16)
(0.024453 -3.50534e-16 -8.00989e-17)
(0.027383 -2.84421e-16 -5.04201e-17)
(0.0301201 -2.37624e-16 -3.36406e-17)
(0.0326745 -2.03348e-16 -2.3724e-17)
(0.0350591 -1.77271e-16 -1.77182e-17)
(0.0372882 -1.56732e-16 -1.37275e-17)
(0.0393758 -1.40267e-16 -1.09133e-17)
(0.0413355 -1.26852e-16 -8.9355e-18)
(0.0431797 -1.15623e-16 -7.10706e-18)
(0.0449196 -1.0621e-16 -6.02474e-18)
(0.046565 -9.82367e-17 -4.91018e-18)
(0.0481248 -9.12333e-17 -4.48755e-18)
(0.0496067 -8.47906e-17 -4.12111e-18)
(0.0510175 -7.90726e-17 -3.36553e-18)
(0.0523632 -7.4364e-17 -2.79203e-18)
(0.0536492 -7.04202e-17 -2.50752e-18)
(0.05488 -6.68222e-17 -2.20949e-18)
(0.05606 -6.37646e-17 -2.04302e-18)
(0.0571927 -6.08928e-17 -2.01239e-18)
(0.0582815 -5.79307e-17 -2.12718e-18)
(0.0593294 -5.53661e-17 -1.94291e-18)
(0.060339 -5.30816e-17 -1.66449e-18)
(0.0613128 -5.099e-17 -1.42542e-18)
(0.062253 -4.8942e-17 -1.26085e-18)
(0.0631616 -4.69277e-17 -9.66793e-19)
(0.0640404 -4.48283e-17 -9.58065e-19)
(0.0648911 -4.25322e-17 -1.16936e-18)
(0.0657151 -4.04069e-17 -8.43822e-19)
(0.0665139 -3.85481e-17 -8.03883e-19)
(0.0672887 -3.68818e-17 -7.50468e-19)
(0.0680409 -3.55108e-17 -5.11576e-19)
(0.0687714 -3.43318e-17 -7.54859e-19)
(0.0694812 -3.33187e-17 -3.74791e-19)
(0.0701714 -3.25713e-17 -4.35919e-19)
(0.0708428 -3.19318e-17 -3.8791e-19)
(0.0714962 -3.07194e-17 -4.45624e-19)
(0.0721323 -2.9107e-17 -4.27468e-19)
(0.072752 -2.8195e-17 -8.4207e-20)
(0.0733558 -2.75005e-17 -3.21978e-19)
(0.0739443 -2.66371e-17 -3.87173e-19)
(0.0745183 -2.61088e-17 -2.49019e-19)
(0.0750781 -2.5651e-17 -2.94805e-19)
(0.0756243 -2.51722e-17 -2.54405e-19)
(0.0761575 -2.43997e-17 -4.99586e-19)
(0.076678 -2.33341e-17 -4.84974e-19)
(0.0771863 -2.24933e-17 -3.53833e-19)
(0.0776828 -2.20585e-17 -7.34471e-19)
(0.0781678 -2.12476e-17 -4.4099e-19)
(0.0786418 -2.00837e-17 -3.85597e-19)
(0.079105 -1.92203e-17 -4.00882e-19)
(0.0795579 -1.83102e-17 -4.59729e-19)
(0.0800006 -1.75132e-17 -3.93552e-19)
(0.0804335 -1.69108e-17 -5.3701e-19)
(0.0808569 -1.61944e-17 -2.31655e-19)
(0.0812709 -1.60795e-17 -1.61057e-19)
(0.0816759 -1.58727e-17 -4.25618e-19)
(0.0820721 -1.51161e-17 -7.97275e-19)
(0.0824597 -1.45713e-17 -4.55735e-19)
(0.0828389 -1.45511e-17 -1.91069e-19)
(0.0832099 -1.49339e-17 -3.46568e-19)
(0.0835729 -1.48009e-17 -4.62376e-19)
(0.0839281 -1.41836e-17 -4.87912e-19)
(0.0842756 -1.34317e-17 -2.28917e-19)
(0.0846156 -1.31711e-17 -1.74172e-19)
(0.0849482 -1.30695e-17 3.72189e-19)
(0.0852736 -1.30006e-17 7.5913e-19)
(0.0855919 -1.31821e-17 -6.65058e-20)
(0.0859032 -1.34671e-17 9.20972e-20)
(0.0862077 -1.42868e-17 4.08852e-19)
(0.0865055 -1.43916e-17 2.40815e-19)
(0.0867966 -1.355e-17 3.20743e-20)
(0.0870812 -1.28298e-17 -3.67732e-19)
(0.0873594 -1.2224e-17 -3.49399e-19)
(0.0876313 -1.23638e-17 2.40951e-19)
(0.0878969 -1.3147e-17 4.40383e-19)
(0.0881563 -1.36686e-17 -1.08844e-19)
(0.0884096 -1.30801e-17 -3.99672e-19)
(0.0886569 -1.21264e-17 -4.64165e-19)
(0.0888982 -1.20004e-17 -4.5599e-19)
(0.0891335 -1.13962e-17 -6.46153e-19)
(0.089363 -9.71935e-18 -8.56414e-19)
(0.0895867 -8.1169e-18 -6.83991e-19)
(0.0898046 -6.85253e-18 -5.62526e-19)
(0.0900168 -6.11639e-18 -1.46483e-19)
(0.0902232 -5.79102e-18 6.94362e-21)
(0.090424 -5.56351e-18 -2.4274e-19)
(0.0906192 -5.75861e-18 -2.05359e-19)
(0.0908088 -6.23278e-18 -4.05427e-19)
(0.0909927 -5.8355e-18 -8.76136e-19)
(0.0911711 -4.55195e-18 -3.03391e-19)
(0.0913439 -2.82203e-18 -4.73042e-19)
(0.0915112 -2.14416e-18 -4.1088e-20)
(0.0916729 -2.91949e-18 2.83224e-19)
(0.0918291 -3.31073e-18 1.06964e-19)
(0.0919797 -2.79721e-18 -3.96527e-20)
(0.0921247 -1.93349e-18 -1.57917e-19)
(0.0922642 -1.85043e-18 2.16842e-19)
(0.0923981 -3.68236e-18 2.75349e-19)
(0.0925264 -5.91853e-18 -2.72052e-19)
(0.0926491 -5.96416e-18 -5.12246e-19)
(0.0927662 -7.0281e-18 1.13272e-18)
(0.0928776 -9.07372e-18 4.07983e-19)
(0.0929833 -1.03345e-17 3.1766e-19)
(0.0930832 -1.11307e-17 -9.54756e-20)
(0.0931774 -1.24619e-17 -4.65991e-19)
(0.0932658 -1.30428e-17 -2.03403e-19)
(0.0933483 -1.25111e-17 1.10383e-19)
(0.0934249 -1.2653e-17 2.85818e-19)
(0.0934955 -1.29931e-17 -4.85749e-19)
(0.0935601 -1.30978e-17 -7.63379e-19)
(0.0936186 -1.21897e-17 -8.23997e-19)
(0.0936709 -1.01775e-17 -8.73535e-19)
(0.093717 -7.84308e-18 -8.78988e-19)
(0.0937568 -6.09454e-18 -8.37769e-19)
(0.0937902 -4.516e-18 -6.40464e-19)
(0.0938171 -2.97593e-18 3.85652e-19)
(0.0938374 -2.23188e-18 -4.24225e-19)
(0.0938511 -8.3326e-19 -1.04867e-18)
(0.093858 5.04988e-19 2.65064e-19)
(0.00395335 -2.09698e-16 -9.62899e-16)
(0.0107419 -7.41958e-16 -1.07839e-15)
(0.0171668 -8.12347e-16 -8.13542e-16)
(0.0232596 -7.3691e-16 -5.61529e-16)
(0.0290232 -6.30154e-16 -3.73765e-16)
(0.0344436 -5.28245e-16 -2.46105e-16)
(0.0395112 -4.42713e-16 -1.64259e-16)
(0.0442296 -3.74744e-16 -1.12903e-16)
(0.0486143 -3.21485e-16 -8.04326e-17)
(0.0526883 -2.7985e-16 -5.94569e-17)
(0.0564779 -2.46799e-16 -4.56114e-17)
(0.0600102 -2.19945e-16 -3.58122e-17)
(0.0633107 -1.9798e-16 -2.89711e-17)
(0.066403 -1.79522e-16 -2.39643e-17)
(0.0693082 -1.64254e-16 -1.99862e-17)
(0.0720451 -1.51397e-16 -1.68676e-17)
(0.0746302 -1.40216e-16 -1.41813e-17)
(0.0770778 -1.306e-16 -1.25961e-17)
(0.0794005 -1.21526e-16 -1.11657e-17)
(0.0816095 -1.13485e-16 -9.3401e-18)
(0.0837143 -1.06905e-16 -8.20316e-18)
(0.0857237 -1.01235e-16 -7.33608e-18)
(0.0876451 -9.6177e-17 -6.64441e-18)
(0.0894852 -9.1678e-17 -6.36716e-18)
(0.09125 -8.73724e-17 -6.05556e-18)
(0.0929449 -8.3055e-17 -5.70696e-18)
(0.0945746 -7.92091e-17 -5.09211e-18)
(0.0961434 -7.58231e-17 -4.49588e-18)
(0.0976552 -7.26878e-17 -4.4022e-18)
(0.0991135 -6.96934e-17 -3.92283e-18)
(0.100522 -6.6906e-17 -3.48808e-18)
(0.101882 -6.43145e-17 -3.41018e-18)
(0.103198 -6.11781e-17 -3.57255e-18)
(0.104472 -5.81633e-17 -2.97826e-18)
(0.105706 -5.59476e-17 -2.90164e-18)
(0.106902 -5.36425e-17 -2.75703e-18)
(0.108061 -5.17446e-17 -1.93561e-18)
(0.109187 -5.00963e-17 -1.67011e-18)
(0.110279 -4.86183e-17 -1.42985e-18)
(0.111341 -4.73264e-17 -1.69604e-18)
(0.112373 -4.59694e-17 -1.7367e-18)
(0.113376 -4.43822e-17 -1.71476e-18)
(0.114352 -4.22284e-17 -1.74441e-18)
(0.115303 -4.09865e-17 -9.44691e-19)
(0.116228 -4.01711e-17 -1.28162e-18)
(0.117129 -3.87795e-17 -1.41746e-18)
(0.118007 -3.78582e-17 -1.02978e-18)
(0.118862 -3.72711e-17 -8.29199e-19)
(0.119697 -3.66736e-17 -7.25489e-19)
(0.12051 -3.56011e-17 -1.40252e-18)
(0.121304 -3.40062e-17 -1.41622e-18)
(0.122079 -3.30766e-17 -1.11332e-18)
(0.122835 -3.22582e-17 -1.83683e-18)
(0.123573 -3.0988e-17 -1.62047e-18)
(0.124294 -2.9794e-17 -1.52975e-18)
(0.124997 -2.86986e-17 -1.41115e-18)
(0.125685 -2.74621e-17 -1.31495e-18)
(0.126357 -2.65879e-17 -1.17181e-18)
(0.127013 -2.54804e-17 -1.39781e-18)
(0.127655 -2.44479e-17 -6.34844e-19)
(0.128282 -2.46325e-17 -6.6219e-19)
(0.128894 -2.43265e-17 -1.35216e-18)
(0.129493 -2.30493e-17 -1.77588e-18)
(0.130079 -2.21238e-17 -9.11194e-19)
(0.130652 -2.19267e-17 -4.36202e-19)
(0.131211 -2.22528e-17 -1.50337e-18)
(0.131759 -2.19169e-17 -1.04873e-18)
(0.132294 -2.09238e-17 -1.18453e-18)
(0.132817 -2.00393e-17 -1.24201e-18)
(0.133329 -1.93865e-17 -1.23461e-18)
(0.133829 -1.88703e-17 -1.99458e-19)
(0.134319 -1.9365e-17 9.97418e-19)
(0.134797 -1.97774e-17 1.5272e-19)
(0.135264 -1.93447e-17 3.50333e-19)
(0.135721 -1.99321e-17 1.09971e-18)
(0.136168 -2.03077e-17 1.12942e-18)
(0.136604 -1.95524e-17 8.07025e-19)
(0.13703 -1.84449e-17 -8.18566e-19)
(0.137447 -1.7236e-17 -1.04622e-18)
(0.137854 -1.71363e-17 -2.92446e-20)
(0.138251 -1.80879e-17 1.72862e-19)
(0.138639 -1.82213e-17 -5.66958e-19)
(0.139017 -1.73924e-17 -1.02417e-18)
(0.139386 -1.63906e-17 -1.05403e-18)
(0.139746 -1.58648e-17 -8.67884e-19)
(0.140098 -1.52722e-17 -6.63407e-19)
(0.14044 -1.35401e-17 -1.60399e-18)
(0.140773 -1.17452e-17 -9.06023e-19)
(0.141098 -1.02058e-17 -8.13724e-19)
(0.141413 -9.36188e-18 -5.88737e-19)
(0.141721 -9.27546e-18 -5.81831e-19)
(0.142019 -8.87724e-18 -1.21695e-18)
(0.14231 -9.09624e-18 -8.56582e-19)
(0.142591 -9.68491e-18 -1.57348e-18)
(0.142865 -9.05133e-18 -1.9649e-18)
(0.14313 -7.52482e-18 -1.86144e-18)
(0.143386 -5.41096e-18 -2.22616e-18)
(0.143634 -4.36609e-18 -1.5582e-18)
(0.143874 -5.11011e-18 -4.98904e-19)
(0.144106 -5.45343e-18 -7.73502e-21)
(0.144329 -4.7956e-18 1.6237e-19)
(0.144544 -3.73512e-18 4.22444e-19)
(0.144751 -3.63584e-18 4.07371e-19)
(0.144949 -5.13409e-18 -5.82925e-19)
(0.145139 -7.01757e-18 -4.00945e-19)
(0.145321 -6.65685e-18 -3.41631e-19)
(0.145494 -7.62552e-18 1.31318e-18)
(0.145659 -9.91686e-18 7.37465e-19)
(0.145815 -1.10008e-17 6.79461e-19)
(0.145963 -1.17528e-17 -2.1765e-19)
(0.146102 -1.26126e-17 -1.03374e-18)
(0.146233 -1.26887e-17 -1.46157e-18)
(0.146355 -1.18296e-17 -1.27982e-18)
(0.146468 -1.17886e-17 -4.85052e-19)
(0.146572 -1.19487e-17 -5.34966e-19)
(0.146667 -1.17168e-17 -9.97777e-19)
(0.146754 -1.0721e-17 -1.17354e-18)
(0.146831 -8.57776e-18 -1.86866e-18)
(0.146899 -5.95828e-18 -1.21148e-18)
(0.146958 -4.17757e-18 -9.63983e-20)
(0.147007 -2.71378e-18 -8.13267e-19)
(0.147047 -1.70532e-18 3.4368e-20)
(0.147077 -1.6193e-18 -5.79375e-19)
(0.147097 -2.3064e-19 -1.48386e-18)
(0.147107 7.42974e-19 4.84604e-19)
(0.005288 -9.62819e-17 -5.1046e-16)
(0.0144697 -4.12499e-16 -7.80388e-16)
(0.0232596 -5.59357e-16 -7.3897e-16)
(0.0316019 -5.90289e-16 -5.93715e-16)
(0.0394481 -5.60472e-16 -4.4281e-16)
(0.0467618 -5.06936e-16 -3.20423e-16)
(0.0535339 -4.4918e-16 -2.31397e-16)
(0.0597839 -3.95735e-16 -1.69225e-16)
(0.0655495 -3.49376e-16 -1.26308e-16)
(0.0708759 -3.10362e-16 -9.68946e-17)
(0.0758092 -2.77362e-16 -7.5995e-17)
(0.0803924 -2.49709e-16 -6.07248e-17)
(0.0846644 -2.26564e-16 -4.95949e-17)
(0.0886594 -2.06664e-16 -4.12922e-17)
(0.0924072 -1.89628e-16 -3.49999e-17)
(0.0959335 -1.74934e-16 -2.95766e-17)
(0.0992608 -1.62612e-16 -2.54904e-17)
(0.102408 -1.51644e-16 -2.24722e-17)
(0.105393 -1.40881e-16 -1.96861e-17)
(0.108229 -1.31748e-16 -1.67735e-17)
(0.11093 -1.24392e-16 -1.47901e-17)
(0.113506 -1.17686e-16 -1.3463e-17)
(0.115968 -1.11708e-16 -1.21757e-17)
(0.118325 -1.06281e-16 -1.11066e-17)
(0.120583 -1.00935e-16 -1.04707e-17)
(0.122751 -9.57457e-17 -9.57222e-18)
(0.124834 -9.12455e-17 -8.47125e-18)
(0.126838 -8.75099e-17 -7.74176e-18)
(0.128768 -8.36718e-17 -7.35527e-18)
(0.130628 -7.9773e-17 -6.84754e-18)
(0.132424 -7.65793e-17 -6.42627e-18)
(0.134157 -7.37174e-17 -6.36853e-18)
(0.135833 -7.00169e-17 -6.58082e-18)
(0.137454 -6.65912e-17 -5.44221e-18)
(0.139023 -6.39733e-17 -4.96275e-18)
(0.140543 -6.0916e-17 -4.78239e-18)
(0.142016 -5.85448e-17 -3.93689e-18)
(0.143445 -5.69235e-17 -2.74933e-18)
(0.144831 -5.55328e-17 -2.64237e-18)
(0.146177 -5.39531e-17 -2.89838e-18)
(0.147484 -5.20596e-17 -3.10838e-18)
(0.148755 -5.01149e-17 -2.93046e-18)
(0.14999 -4.74972e-17 -2.93087e-18)
(0.151191 -4.60226e-17 -2.00091e-18)
(0.15236 -4.52591e-17 -2.21013e-18)
(0.153498 -4.36398e-17 -1.87717e-18)
(0.154606 -4.25347e-17 -1.77149e-18)
(0.155685 -4.18221e-17 -1.25667e-18)
(0.156737 -4.13237e-17 -1.18884e-18)
(0.157761 -4.01897e-17 -1.87341e-18)
(0.158761 -3.82459e-17 -1.95448e-18)
(0.159735 -3.73672e-17 -1.95331e-18)
(0.160685 -3.64978e-17 -2.59744e-18)
(0.161612 -3.49314e-17 -2.52623e-18)
(0.162517 -3.35943e-17 -2.58986e-18)
(0.1634 -3.23372e-17 -2.19333e-18)
(0.164262 -3.10754e-17 -1.54399e-18)
(0.165104 -3.00351e-17 -1.45135e-18)
(0.165925 -2.88321e-17 -1.22753e-18)
(0.166728 -2.80554e-17 -1.00353e-18)
(0.167512 -2.84856e-17 -7.9734e-19)
(0.168278 -2.8149e-17 -1.74923e-18)
(0.169026 -2.6351e-17 -2.20623e-18)
(0.169757 -2.50412e-17 -1.79859e-18)
(0.170471 -2.53989e-17 -1.20242e-18)
(0.171169 -2.52395e-17 -1.62594e-18)
(0.17185 -2.45066e-17 -1.24733e-18)
(0.172517 -2.40998e-17 -1.29516e-18)
(0.173168 -2.32518e-17 -1.7353e-18)
(0.173804 -2.20291e-17 -1.76415e-18)
(0.174426 -2.08825e-17 -1.25064e-18)
(0.175033 -2.16575e-17 -8.22014e-19)
(0.175627 -2.23522e-17 2.04002e-19)
(0.176207 -2.16778e-17 2.91934e-19)
(0.176773 -2.20009e-17 9.5934e-19)
(0.177326 -2.24379e-17 1.31532e-18)
(0.177867 -2.25052e-17 5.59836e-19)
(0.178394 -2.15461e-17 -1.63267e-18)
(0.178909 -1.94031e-17 -1.74005e-18)
(0.179412 -1.88762e-17 -7.32021e-19)
(0.179903 -1.9948e-17 -7.73231e-19)
(0.180382 -2.01612e-17 -1.12842e-18)
(0.180849 -1.9046e-17 -1.10215e-18)
(0.181304 -1.78397e-17 -1.46187e-18)
(0.181748 -1.71204e-17 -8.34832e-19)
(0.182181 -1.67287e-17 -1.20341e-18)
(0.182602 -1.4924e-17 -2.01389e-18)
(0.183013 -1.30416e-17 -1.44084e-18)
(0.183412 -1.20003e-17 -8.66641e-19)
(0.183801 -1.12364e-17 -1.19449e-18)
(0.184179 -1.11159e-17 -6.82471e-19)
(0.184546 -1.05883e-17 -7.87911e-19)
(0.184902 -1.08495e-17 -8.06953e-19)
(0.185248 -1.14555e-17 -2.12156e-18)
(0.185584 -1.05889e-17 -2.74246e-18)
(0.185909 -9.35444e-18 -2.78001e-18)
(0.186223 -7.30756e-18 -3.66765e-18)
(0.186528 -5.57695e-18 -2.47249e-18)
(0.186822 -6.01041e-18 -7.98195e-19)
(0.187105 -6.48357e-18 -2.88666e-19)
(0.187379 -5.74691e-18 3.62356e-19)
(0.187642 -4.94474e-18 8.54003e-19)
(0.187895 -5.3042e-18 3.93876e-19)
(0.188138 -6.17591e-18 -5.71862e-19)
(0.18837 -7.25554e-18 -3.96179e-19)
(0.188592 -6.89217e-18 2.77475e-19)
(0.188804 -7.66547e-18 7.0267e-19)
(0.189005 -9.63197e-18 9.3048e-20)
(0.189196 -1.09267e-17 1.52056e-18)
(0.189377 -1.18634e-17 -9.72207e-20)
(0.189547 -1.22328e-17 -1.03086e-18)
(0.189707 -1.19424e-17 -1.5715e-18)
(0.189855 -1.06523e-17 -2.23472e-18)
(0.189993 -1.01694e-17 -1.13455e-18)
(0.190121 -1.0315e-17 -6.56534e-19)
(0.190237 -1.0066e-17 -3.79285e-19)
(0.190343 -9.11164e-18 -7.85824e-19)
(0.190437 -6.92217e-18 -1.85505e-18)
(0.19052 -4.03849e-18 -8.79748e-19)
(0.190592 -2.70872e-18 9.73558e-20)
(0.190652 -1.62221e-18 -9.52794e-19)
(0.1907 -7.2264e-19 1.3164e-20)
(0.190737 -1.14024e-18 -8.79152e-19)
(0.190761 1.22249e-19 -1.0379e-18)
(0.190774 8.50979e-19 1.6951e-18)
(0.00656092 -5.32969e-17 -3.21942e-16)
(0.017996 -2.33853e-16 -5.81653e-16)
(0.0290232 -3.71143e-16 -6.33065e-16)
(0.0394481 -4.38921e-16 -5.64796e-16)
(0.0491251 -4.53719e-16 -4.58543e-16)
(0.0579987 -4.3813e-16 -3.56673e-16)
(0.0660967 -4.08384e-16 -2.73856e-16)
(0.0734886 -3.73821e-16 -2.10654e-16)
(0.0802556 -3.39896e-16 -1.64083e-16)
(0.0864753 -3.08606e-16 -1.29644e-16)
(0.0922173 -2.80332e-16 -1.04083e-16)
(0.0975412 -2.5558e-16 -8.48964e-17)
(0.102498 -2.34153e-16 -7.00853e-17)
(0.107131 -2.153e-16 -5.86504e-17)
(0.111476 -1.98603e-16 -4.97417e-17)
(0.115564 -1.84083e-16 -4.25307e-17)
(0.119421 -1.71653e-16 -3.71277e-17)
(0.123071 -1.60097e-16 -3.27392e-17)
(0.126533 -1.49138e-16 -2.88682e-17)
(0.129824 -1.39829e-16 -2.50493e-17)
(0.132958 -1.321e-16 -2.22241e-17)
(0.135948 -1.2495e-16 -2.02103e-17)
(0.138806 -1.18328e-16 -1.82201e-17)
(0.141542 -1.12591e-16 -1.63272e-17)
(0.144164 -1.06974e-16 -1.50376e-17)
(0.146681 -1.01211e-16 -1.36656e-17)
(0.149101 -9.64234e-17 -1.22802e-17)
(0.151428 -9.24195e-17 -1.14999e-17)
(0.153669 -8.82977e-17 -1.08434e-17)
(0.15583 -8.42216e-17 -1.01238e-17)
(0.157915 -8.07092e-17 -9.65273e-18)
(0.159929 -7.75944e-17 -9.27015e-18)
(0.161874 -7.33302e-17 -8.86189e-18)
(0.163757 -6.94779e-17 -8.04592e-18)
(0.165578 -6.70214e-17 -7.23666e-18)
(0.167342 -6.39405e-17 -6.62366e-18)
(0.169052 -6.09108e-17 -6.08922e-18)
(0.170709 -5.90974e-17 -4.85867e-18)
(0.172317 -5.78481e-17 -4.58184e-18)
(0.173878 -5.60687e-17 -4.11588e-18)
(0.175394 -5.39643e-17 -4.49897e-18)
(0.176866 -5.18396e-17 -4.34012e-18)
(0.178297 -4.91693e-17 -3.81297e-18)
(0.179689 -4.75774e-17 -2.72341e-18)
(0.181043 -4.64594e-17 -2.95848e-18)
(0.18236 -4.49119e-17 -2.3348e-18)
(0.183642 -4.39121e-17 -2.46343e-18)
(0.184891 -4.29766e-17 -2.11263e-18)
(0.186107 -4.2528e-17 -2.20864e-18)
(0.187292 -4.13924e-17 -2.61757e-18)
(0.188446 -3.95858e-17 -2.93923e-18)
(0.189572 -3.87249e-17 -3.29203e-18)
(0.190669 -3.7648e-17 -3.59354e-18)
(0.191739 -3.60826e-17 -4.11246e-18)
(0.192783 -3.46099e-17 -3.43833e-18)
(0.193801 -3.29321e-17 -3.10945e-18)
(0.194795 -3.18374e-17 -2.20399e-18)
(0.195765 -3.10024e-17 -1.98973e-18)
(0.196711 -2.98409e-17 -1.66462e-18)
(0.197635 -2.90793e-17 -1.15928e-18)
(0.198537 -2.94985e-17 -7.61436e-19)
(0.199418 -2.93963e-17 -2.04371e-18)
(0.200278 -2.7697e-17 -2.55001e-18)
(0.201118 -2.62439e-17 -2.8043e-18)
(0.201939 -2.58328e-17 -2.2234e-18)
(0.20274 -2.57458e-17 -1.34281e-18)
(0.203522 -2.5388e-17 -1.15885e-18)
(0.204287 -2.49822e-17 -2.0052e-18)
(0.205033 -2.41402e-17 -2.24432e-18)
(0.205762 -2.30092e-17 -1.81993e-18)
(0.206475 -2.23335e-17 -2.04906e-18)
(0.20717 -2.20639e-17 -2.37935e-18)
(0.20785 -2.23194e-17 -1.25394e-18)
(0.208513 -2.23381e-17 -3.77676e-19)
(0.209161 -2.23641e-17 7.19498e-19)
(0.209793 -2.3003e-17 4.88357e-19)
(0.21041 -2.36601e-17 -1.4148e-18)
(0.211013 -2.2488e-17 -2.21813e-18)
(0.211601 -1.98884e-17 -2.31876e-18)
(0.212175 -1.93994e-17 -7.42971e-19)
(0.212735 -2.03799e-17 -1.43727e-18)
(0.213281 -2.01082e-17 -1.98298e-18)
(0.213813 -1.93092e-17 -1.30418e-18)
(0.214332 -1.82435e-17 -1.33961e-18)
(0.214837 -1.74179e-17 -1.70189e-18)
(0.21533 -1.70823e-17 -2.21742e-18)
(0.215809 -1.51715e-17 -1.30878e-18)
(0.216276 -1.33665e-17 -1.3522e-18)
(0.21673 -1.27042e-17 -1.17371e-18)
(0.217172 -1.17568e-17 -9.39493e-19)
(0.217601 -1.1301e-17 -3.54094e-19)
(0.218018 -1.13022e-17 -3.39061e-19)
(0.218423 -1.20205e-17 -7.45453e-19)
(0.218816 -1.24848e-17 -1.96602e-18)
(0.219196 -1.13464e-17 -2.11216e-18)
(0.219565 -1.03346e-17 -2.7506e-18)
(0.219922 -8.03725e-18 -3.36289e-18)
(0.220267 -5.88387e-18 -1.67029e-18)
(0.2206 -6.65543e-18 -3.08391e-19)
(0.220921 -7.03995e-18 -7.27108e-20)
(0.221231 -6.04097e-18 -5.03463e-20)
(0.221529 -5.84176e-18 1.23703e-18)
(0.221815 -6.37959e-18 4.73814e-19)
(0.22209 -6.83465e-18 2.18447e-19)
(0.222353 -7.39271e-18 1.00187e-19)
(0.222604 -7.18463e-18 1.6683e-20)
(0.222844 -7.9414e-18 -3.44561e-19)
(0.223071 -8.80803e-18 -6.88531e-19)
(0.223287 -1.0209e-17 7.98645e-19)
(0.223491 -1.16146e-17 -2.02939e-19)
(0.223683 -1.15321e-17 -7.27398e-19)
(0.223864 -1.12426e-17 -1.68593e-18)
(0.224032 -9.82095e-18 -3.25321e-18)
(0.224188 -8.86753e-18 -1.87435e-18)
(0.224332 -8.71483e-18 -8.8141e-19)
(0.224463 -8.44408e-18 -4.90361e-19)
(0.224582 -7.94727e-18 -2.98259e-19)
(0.224688 -5.8591e-18 -1.86199e-18)
(0.224782 -3.00776e-18 -6.54065e-19)
(0.224863 -2.00452e-18 -2.94621e-19)
(0.224931 -9.68226e-19 -6.96141e-19)
(0.224985 -4.08573e-19 -1.21604e-19)
(0.225027 -7.26101e-19 -1.31392e-18)
(0.225055 1.45384e-18 -1.98192e-18)
(0.225068 1.18458e-18 1.73084e-18)
(0.00777473 -2.87308e-17 -2.23733e-16)
(0.0213243 -1.3403e-16 -4.4643e-16)
(0.0344436 -2.43378e-16 -5.32101e-16)
(0.0467618 -3.16542e-16 -5.1205e-16)
(0.0579987 -3.51954e-16 -4.43528e-16)
(0.0680923 -3.59952e-16 -3.65109e-16)
(0.0771498 -3.51091e-16 -2.94235e-16)
(0.0853261 -3.33407e-16 -2.36155e-16)
(0.0927625 -3.12014e-16 -1.90497e-16)
(0.0995741 -2.89574e-16 -1.54868e-16)
(0.105853 -2.67914e-16 -1.27209e-16)
(0.111673 -2.4767e-16 -1.05823e-16)
(0.117093 -2.29224e-16 -8.86907e-17)
(0.122163 -2.12674e-16 -7.49457e-17)
(0.126923 -1.97768e-16 -6.40244e-17)
(0.131406 -1.84592e-16 -5.52727e-17)
(0.135641 -1.73019e-16 -4.82342e-17)
(0.139653 -1.62024e-16 -4.22352e-17)
(0.143462 -1.51133e-16 -3.74264e-17)
(0.147087 -1.41808e-16 -3.3082e-17)
(0.150542 -1.34452e-16 -2.93025e-17)
(0.153842 -1.27281e-16 -2.65133e-17)
(0.156998 -1.20337e-16 -2.42132e-17)
(0.160022 -1.14495e-16 -2.17085e-17)
(0.162923 -1.08848e-16 -1.96114e-17)
(0.165709 -1.03103e-16 -1.80067e-17)
(0.168389 -9.8468e-17 -1.66964e-17)
(0.170968 -9.4416e-17 -1.55782e-17)
(0.173453 -8.99264e-17 -1.45186e-17)
(0.17585 -8.56668e-17 -1.35346e-17)
(0.178163 -8.20581e-17 -1.26825e-17)
(0.180398 -7.8521e-17 -1.22607e-17)
(0.182559 -7.45768e-17 -1.15452e-17)
(0.18465 -7.08543e-17 -1.08773e-17)
(0.186673 -6.77656e-17 -1.0546e-17)
(0.188633 -6.47088e-17 -9.20934e-18)
(0.190533 -6.16323e-17 -8.40481e-18)
(0.192376 -5.95317e-17 -7.65822e-18)
(0.194164 -5.7973e-17 -6.95082e-18)
(0.195899 -5.64158e-17 -6.72773e-18)
(0.197584 -5.45837e-17 -6.40646e-18)
(0.199222 -5.19426e-17 -5.80978e-18)
(0.200813 -4.89186e-17 -5.21973e-18)
(0.20236 -4.75895e-17 -4.36962e-18)
(0.203865 -4.66423e-17 -3.59375e-18)
(0.20533 -4.50853e-17 -2.78404e-18)
(0.206755 -4.41035e-17 -2.9204e-18)
(0.208143 -4.31088e-17 -2.97388e-18)
(0.209495 -4.27326e-17 -3.41046e-18)
(0.210811 -4.15769e-17 -3.81383e-18)
(0.212094 -3.98359e-17 -3.87102e-18)
(0.213344 -3.88222e-17 -4.6262e-18)
(0.214563 -3.78213e-17 -5.14257e-18)
(0.215752 -3.59541e-17 -4.46495e-18)
(0.216911 -3.42726e-17 -3.50392e-18)
(0.218041 -3.28376e-17 -3.34623e-18)
(0.219144 -3.1609e-17 -3.10463e-18)
(0.22022 -3.07282e-17 -2.82053e-18)
(0.22127 -2.96363e-17 -1.86333e-18)
(0.222294 -2.89887e-17 -1.19377e-18)
(0.223294 -2.98064e-17 -7.2196e-19)
(0.224271 -2.98496e-17 -1.38449e-18)
(0.225224 -2.80593e-17 -2.1314e-18)
(0.226154 -2.65063e-17 -2.73661e-18)
(0.227063 -2.55845e-17 -2.68786e-18)
(0.22795 -2.5356e-17 -2.32111e-18)
(0.228816 -2.57436e-17 -2.66219e-18)
(0.229661 -2.54534e-17 -3.3547e-18)
(0.230487 -2.40751e-17 -3.15336e-18)
(0.231293 -2.31448e-17 -2.61043e-18)
(0.23208 -2.26568e-17 -2.7887e-18)
(0.232849 -2.2222e-17 -2.69876e-18)
(0.233599 -2.19671e-17 -2.18567e-18)
(0.234332 -2.14967e-17 -6.78329e-19)
(0.235047 -2.20435e-17 1.04457e-18)
(0.235745 -2.36686e-17 2.30362e-19)
(0.236426 -2.37346e-17 -2.21893e-18)
(0.23709 -2.21104e-17 -2.12916e-18)
(0.237739 -1.95155e-17 -1.48946e-18)
(0.238371 -1.91964e-17 2.09408e-19)
(0.238988 -2.07153e-17 -8.91508e-19)
(0.239589 -1.99468e-17 -2.76837e-18)
(0.240175 -1.86844e-17 -2.16351e-18)
(0.240746 -1.82716e-17 -2.42299e-18)
(0.241302 -1.78217e-17 -3.51295e-18)
(0.241844 -1.62729e-17 -4.52868e-18)
(0.242371 -1.44297e-17 -1.66427e-18)
(0.242884 -1.36785e-17 -1.39877e-18)
(0.243384 -1.27625e-17 -2.02644e-18)
(0.243869 -1.17497e-17 -7.9415e-19)
(0.24434 -1.16039e-17 -2.52509e-19)
(0.244798 -1.16273e-17 -4.19474e-19)
(0.245242 -1.23773e-17 -8.44893e-19)
(0.245673 -1.24397e-17 -1.50212e-18)
(0.246091 -1.13507e-17 -1.17823e-18)
(0.246495 -1.07255e-17 -2.34712e-18)
(0.246886 -8.26154e-18 -2.08861e-18)
(0.247264 -6.29525e-18 -1.2645e-18)
(0.247629 -7.26244e-18 -2.01058e-19)
(0.247982 -7.61026e-18 -6.78741e-19)
(0.248321 -6.20697e-18 -2.91684e-19)
(0.248647 -6.13504e-18 1.40647e-18)
(0.248961 -6.96783e-18 5.87367e-19)
(0.249261 -7.11291e-18 8.74682e-19)
(0.249549 -7.80607e-18 1.18963e-18)
(0.249824 -7.67597e-18 -4.86637e-19)
(0.250086 -8.05295e-18 -5.39953e-19)
(0.250335 -8.44563e-18 -1.01375e-18)
(0.250571 -9.54631e-18 -5.65985e-19)
(0.250794 -1.08102e-17 -4.43564e-19)
(0.251004 -1.09864e-17 -1.6182e-19)
(0.251201 -1.11835e-17 -1.9293e-18)
(0.251385 -9.28391e-18 -3.73886e-18)
(0.251555 -7.63243e-18 -2.97566e-18)
(0.251712 -7.70226e-18 -1.14553e-18)
(0.251856 -7.33434e-18 -1.01897e-18)
(0.251986 -7.05635e-18 -6.04147e-19)
(0.252102 -5.18241e-18 -1.02888e-18)
(0.252205 -2.31356e-18 -1.04589e-18)
(0.252293 -1.64951e-18 -1.28354e-19)
(0.252367 -7.23442e-19 3.40889e-19)
(0.252427 -4.46896e-19 -7.922e-19)
(0.252472 -1.18641e-18 -2.10685e-18)
(0.252502 1.33543e-18 -5.03088e-18)
(0.252517 1.42575e-18 2.36035e-19)
(0.00892741 -1.5749e-17 -1.66344e-16)
(0.024453 -7.94811e-17 -3.52302e-16)
(0.0395112 -1.61584e-16 -4.47495e-16)
(0.0535339 -2.27576e-16 -4.55289e-16)
(0.0660967 -2.69269e-16 -4.14571e-16)
(0.0771498 -2.89398e-16 -3.56882e-16)
(0.086907 -2.94155e-16 -2.99397e-16)
(0.095624 -2.88991e-16 -2.48857e-16)
(0.103508 -2.77912e-16 -2.06527e-16)
(0.110711 -2.63722e-16 -1.7231e-16)
(0.117347 -2.48474e-16 -1.44627e-16)
(0.1235 -2.33112e-16 -1.22385e-16)
(0.129237 -2.18244e-16 -1.0427e-16)
(0.134611 -2.04502e-16 -8.95578e-17)
(0.139664 -1.91809e-16 -7.70531e-17)
(0.144432 -1.80231e-16 -6.74088e-17)
(0.148943 -1.69545e-16 -5.88786e-17)
(0.153223 -1.59558e-16 -5.1402e-17)
(0.157292 -1.49931e-16 -4.51684e-17)
(0.16117 -1.41088e-16 -4.01858e-17)
(0.164871 -1.33847e-16 -3.56499e-17)
(0.168411 -1.27172e-16 -3.20798e-17)
(0.171801 -1.2044e-16 -2.94266e-17)
(0.175053 -1.14383e-16 -2.70484e-17)
(0.178175 -1.09034e-16 -2.44932e-17)
(0.181177 -1.03805e-16 -2.2685e-17)
(0.184066 -9.8967e-17 -2.12606e-17)
(0.186849 -9.45525e-17 -1.96584e-17)
(0.189534 -9.01315e-17 -1.82817e-17)
(0.192124 -8.59652e-17 -1.71139e-17)
(0.194626 -8.24996e-17 -1.5795e-17)
(0.197045 -7.9045e-17 -1.56114e-17)
(0.199385 -7.49045e-17 -1.52823e-17)
(0.20165 -7.14516e-17 -1.50419e-17)
(0.203844 -6.80601e-17 -1.37803e-17)
(0.205969 -6.45653e-17 -1.22277e-17)
(0.208031 -6.19204e-17 -1.07748e-17)
(0.21003 -5.9606e-17 -1.05846e-17)