/*--------------------------------*- C++ -*----------------------------------*\
| =========                 |                                                 |
| \\      /  F ield         | OpenFOAM: The Open Source CFD Toolbox           |
|  \\    /   O peration     | Version:  2306                                  |
|   \\  /    A nd           | Website:  www.openfoam.com                      |
|    \\/     M anipulation  |                                                 |
\*---------------------------------------------------------------------------*/
// * * * * * * * * * * * * * * * * * * * * * * * * * * * * * * * * * * * * * //
FoamFile
{
    version         2;
    format          ascii;
    class           volScalarField;
    location        "99.27";
    object          epsilon;
}

dimensions      [ 0 2 -3 0 0 0 0 ];

internalField   nonuniform List<scalar> 
15625
(
0.00131746
0.00163896
0.00231103
0.00328868
0.00449843
0.00586124
0.00730896
0.00879054
0.0102714
0.0117301
0.0131544
0.014538
0.0158786
0.017176
0.0184311
0.0196456
0.0208213
0.0219604
0.0230646
0.024136
0.0251762
0.026187
0.0271699
0.0281262
0.0290574
0.0299647
0.0308492
0.0317119
0.0325538
0.0333759
0.034179
0.0349639
0.0357312
0.0364818
0.0372162
0.0379351
0.038639
0.0393284
0.0400039
0.0406659
0.0413149
0.0419512
0.0425753
0.0431875
0.0437882
0.0443777
0.0449563
0.0455244
0.0460821
0.0466298
0.0471677
0.047696
0.048215
0.0487248
0.0492257
0.0497179
0.0502015
0.0506767
0.0511436
0.0516025
0.0520535
0.0524966
0.052932
0.0533599
0.0537803
0.0541934
0.0545992
0.0549979
0.0553895
0.0557742
0.0561519
0.0565229
0.056887
0.0572445
0.0575953
0.0579395
0.0582772
0.0586083
0.058933
0.0592513
0.0595632
0.0598688
0.060168
0.0604609
0.0607474
0.0610277
0.0613017
0.0615694
0.0618309
0.0620861
0.062335
0.0625776
0.0628139
0.0630439
0.0632676
0.0634849
0.0636959
0.0639004
0.0640985
0.0642902
0.0644753
0.0646539
0.064826
0.0649914
0.06515
0.065302
0.0654472
0.0655855
0.0657169
0.0658412
0.0659586
0.0660688
0.0661717
0.0662674
0.0663557
0.0664365
0.0665098
0.0665753
0.0666331
0.066683
0.0667249
0.0667586
0.0667842
0.0668013
0.0668099
0.00163896
0.0010996
0.0011312
0.00140434
0.00179765
0.00225288
0.00273654
0.00322823
0.00371573
0.00419214
0.00465398
0.00509982
0.00552943
0.00594322
0.00634192
0.00672638
0.00709747
0.00745606
0.00780295
0.00813888
0.00846453
0.00878053
0.00908744
0.00938579
0.00967605
0.00995864
0.010234
0.0105024
0.0107643
0.0110199
0.0112695
0.0115135
0.0117519
0.0119852
0.0122134
0.0124368
0.0126555
0.0128698
0.0130797
0.0132855
0.0134873
0.0136852
0.0138793
0.0140698
0.0142568
0.0144403
0.0146204
0.0147973
0.0149711
0.0151417
0.0153094
0.0154742
0.015636
0.0157951
0.0159514
0.0161051
0.0162561
0.0164046
0.0165505
0.016694
0.016835
0.0169736
0.0171098
0.0172437
0.0173754
0.0175048
0.0176319
0.0177569
0.0178796
0.0180002
0.0181187
0.0182351
0.0183494
0.0184616
0.0185718
0.0186799
0.018786
0.0188901
0.0189922
0.0190922
0.0191904
0.0192865
0.0193806
0.0194728
0.019563
0.0196513
0.0197376
0.0198219
0.0199043
0.0199848
0.0200632
0.0201397
0.0202142
0.0202868
0.0203573
0.0204259
0.0204925
0.0205571
0.0206196
0.0206801
0.0207386
0.020795
0.0208493
0.0209016
0.0209517
0.0209997
0.0210456
0.0210893
0.0211308
0.0211702
0.0212073
0.0212421
0.0212747
0.0213049
0.0213328
0.0213584
0.0213816
0.0214023
0.0214206
0.0214364
0.0214496
0.0214603
0.0214684
0.0214738
0.0214765
0.00231103
0.0011312
0.000837123
0.000859726
0.0010121
0.00122186
0.00145666
0.00170044
0.00194483
0.0021854
0.00241995
0.00264754
0.00286788
0.00308106
0.00328736
0.00348713
0.00368074
0.00386856
0.00405095
0.00422822
0.00440068
0.0045686
0.00473223
0.0048918
0.00504752
0.00519958
0.00534815
0.0054934
0.00563547
0.0057745
0.00591062
0.00604395
0.00617458
0.00630264
0.0064282
0.00655137
0.00667221
0.00679081
0.00690725
0.00702158
0.00713387
0.00724418
0.00735257
0.00745908
0.00756378
0.0076667
0.0077679
0.0078674
0.00796526
0.00806151
0.00815617
0.0082493
0.00834091
0.00843104
0.00851971
0.00860695
0.00869279
0.00877725
0.00886035
0.00894211
0.00902255
0.00910169
0.00917954
0.00925613
0.00933147
0.00940557
0.00947844
0.00955011
0.00962057
0.00968984
0.00975793
0.00982485
0.00989061
0.00995521
0.0100187
0.010081
0.0101422
0.0102022
0.0102611
0.0103189
0.0103756
0.0104311
0.0104856
0.0105389
0.0105911
0.0106422
0.0106921
0.010741
0.0107887
0.0108353
0.0108808
0.0109252
0.0109684
0.0110105
0.0110515
0.0110913
0.0111299
0.0111674
0.0112038
0.0112389
0.0112729
0.0113057
0.0113373
0.0113677
0.0113968
0.0114248
0.0114515
0.0114769
0.0115011
0.011524
0.0115455
0.0115658
0.0115848
0.0116024
0.0116187
0.0116335
0.011647
0.0116591
0.0116698
0.011679
0.0116867
0.0116929
0.0116976
0.0117008
0.0117024
0.00328868
0.00140434
0.000859726
0.000750439
0.000803795
0.000923238
0.00107021
0.00122788
0.00138839
0.00154792
0.00170464
0.0018577
0.00200678
0.00215183
0.00229295
0.0024303
0.00256405
0.00269439
0.0028215
0.00294555
0.00306669
0.00318508
0.00330083
0.00341407
0.00352492
0.00363347
0.00373981
0.00384405
0.00394625
0.00404648
0.00414483
0.00424136
0.00433611
0.00442916
0.00452055
0.00461034
0.00469856
0.00478527
0.00487051
0.0049543
0.0050367
0.00511773
0.00519743
0.00527583
0.00535296
0.00542884
0.0055035
0.00557697
0.00564927
0.00572042
0.00579045
0.00585937
0.0059272
0.00599396
0.00605968
0.00612435
0.00618801
0.00625067
0.00631233
0.00637301
0.00643273
0.00649149
0.00654931
0.0066062
0.00666217
0.00671722
0.00677137
0.00682462
0.00687698
0.00692846
0.00697906
0.00702879
0.00707766
0.00712567
0.00717283
0.00721913
0.00726459
0.00730921
0.00735298
0.00739592
0.00743802
0.00747929
0.00751972
0.00755932
0.00759809
0.00763602
0.00767313
0.0077094
0.00774483
0.00777943
0.00781319
0.00784611
0.00787819
0.00790942
0.00793981
0.00796933
0.00799801
0.00802582
0.00805276
0.00807883
0.00810402
0.00812832
0.00815174
0.00817425
0.00819586
0.00821656
0.00823633
0.00825518
0.00827308
0.00829003
0.00830602
0.00832104
0.00833508
0.00834813
0.00836016
0.00837118
0.00838117
0.00839011
0.00839799
0.0084048
0.00841051
0.00841512
0.0084186
0.00842094
0.00842212
0.00449843
0.00179765
0.0010121
0.000803795
0.000795687
0.000863718
0.00096226
0.00107302
0.00118805
0.00130371
0.00141827
0.00153091
0.00164128
0.00174927
0.00185488
0.00195817
0.00205923
0.00215814
0.002255
0.00234991
0.00244294
0.00253418
0.00262369
0.00271154
0.00279779
0.0028825
0.00296571
0.00304748
0.00312785
0.00320686
0.00328454
0.00336094
0.00343608
0.00351001
0.00358274
0.00365431
0.00372474
0.00379406
0.00386229
0.00392945
0.00399557
0.00406066
0.00412475
0.00418785
0.00424998
0.00431117
0.00437141
0.00443073
0.00448915
0.00454668
0.00460332
0.0046591
0.00471403
0.00476811
0.00482136
0.00487379
0.00492542
0.00497624
0.00502626
0.00507551
0.00512398
0.00517168
0.00521863
0.00526482
0.00531026
0.00535497
0.00539895
0.00544219
0.00548472
0.00552653
0.00556762
0.00560801
0.0056477
0.00568668
0.00572497
0.00576256
0.00579947
0.00583568
0.00587121
0.00590605
0.00594021
0.00597369
0.00600649
0.0060386
0.00607004
0.0061008
0.00613088
0.00616027
0.00618899
0.00621703
0.00624438
0.00627104
0.00629702
0.00632231
0.00634691
0.00637081
0.00639401
0.00641652
0.00643831
0.0064594
0.00647977
0.00649943
0.00651836
0.00653656
0.00655403
0.00657076
0.00658674
0.00660196
0.00661642
0.00663012
0.00664303
0.00665516
0.0066665
0.00667703
0.00668675
0.00669565
0.00670371
0.00671093
0.00671729
0.00672278
0.0067274
0.00673111
0.00673392
0.00673581
0.00673676
0.00586124
0.00225288
0.00122186
0.000923238
0.000863718
0.000891299
0.000953517
0.00103031
0.00111319
0.00119828
0.00128372
0.00136858
0.00145243
0.00153503
0.00161632
0.00169626
0.00177488
0.00185221
0.00192828
0.00200313
0.0020768
0.00214932
0.00222073
0.00229106
0.00236034
0.00242859
0.00249583
0.0025621
0.0026274
0.00269177
0.00275521
0.00281775
0.0028794
0.00294017
0.00300009
0.00305915
0.00311739
0.0031748
0.0032314
0.00328721
0.00334222
0.00339646
0.00344993
0.00350265
0.00355461
0.00360583
0.00365633
0.0037061
0.00375515
0.0038035
0.00385115
0.0038981
0.00394437
0.00398996
0.00403488
0.00407913
0.00412271
0.00416565
0.00420793
0.00424957
0.00429057
0.00433094
0.00437068
0.00440979
0.00444828
0.00448616
0.00452342
0.00456007
0.00459612
0.00463156
0.00466641
0.00470066
0.00473431
0.00476737
0.00479985
0.00483173
0.00486303
0.00489375
0.00492388
0.00495344
0.00498241
0.00501081
0.00503862
0.00506586
0.00509252
0.0051186
0.0051441
0.00516902
0.00519337
0.00521713
0.00524031
0.00526291
0.00528492
0.00530635
0.00532719
0.00534744
0.00536709
0.00538615
0.00540461
0.00542246
0.00543971
0.00545635
0.00547238
0.00548778
0.00550256
0.00551672
0.00553024
0.00554311
0.00555535
0.00556693
0.00557786
0.00558811
0.0055977
0.00560661
0.00561482
0.00562235
0.00562916
0.00563526
0.00564064
0.00564528
0.00564918
0.00565232
0.0056547
0.00565629
0.0056571
0.00730896
0.00273654
0.00145666
0.00107021
0.00096226
0.000953517
0.000984823
0.00103395
0.00109147
0.00115297
0.00121625
0.00128016
0.00134409
0.0014077
0.00147079
0.00153329
0.00159513
0.00165629
0.00171676
0.00177655
0.00183565
0.00189408
0.00195184
0.00200893
0.00206537
0.00212116
0.00217631
0.00223082
0.0022847
0.00233795
0.00239058
0.00244259
0.00249399
0.00254478
0.00259496
0.00264454
0.00269352
0.00274191
0.0027897
0.00283691
0.00288353
0.00292957
0.00297503
0.00301991
0.00306422
0.00310796
0.00315113
0.00319373
0.00323577
0.00327726
0.00331818
0.00335855
0.00339838
0.00343765
0.00347638
0.00351456
0.0035522
0.00358931
0.00362588
0.00366191
0.00369742
0.00373239
0.00376684
0.00380076
0.00383417
0.00386705
0.00389941
0.00393125
0.00396258
0.0039934
0.00402371
0.0040535
0.00408279
0.00411156
0.00413983
0.0041676
0.00419486
0.00422161
0.00424786
0.00427361
0.00429886
0.0043236
0.00434784
0.00437158
0.00439482
0.00441755
0.00443978
0.00446151
0.00448273
0.00450344
0.00452365
0.00454335
0.00456254
0.00458122
0.00459938
0.00461703
0.00463416
0.00465077
0.00466686
0.00468242
0.00469745
0.00471195
0.00472591
0.00473933
0.00475221
0.00476454
0.00477632
0.00478753
0.00479819
0.00480828
0.00481779
0.00482673
0.00483508
0.00484283
0.00484999
0.00485654
0.00486247
0.00486778
0.00487246
0.00487651
0.0048799
0.00488263
0.0048847
0.00488609
0.00488679
0.00879054
0.00322823
0.00170044
0.00122788
0.00107302
0.00103031
0.00103395
0.00105928
0.00109564
0.00113789
0.00118339
0.00123067
0.0012789
0.00132759
0.00137645
0.0014253
0.00147402
0.00152254
0.0015708
0.00161878
0.00166645
0.00171378
0.00176078
0.00180743
0.00185372
0.00189964
0.00194519
0.00199037
0.00203516
0.00207956
0.00212357
0.00216718
0.0022104
0.00225321
0.00229561
0.00233761
0.00237919
0.00242036
0.00246111
0.00250144
0.00254134
0.00258082
0.00261988
0.0026585
0.0026967
0.00273446
0.00277179
0.00280869
0.00284515
0.00288117
0.00291676
0.00295191
0.00298662
0.00302089
0.00305473
0.00308812
0.00312107
0.00315359
0.00318566
0.00321729
0.00324848
0.00327923
0.00330954
0.00333941
0.00336884
0.00339783
0.00342638
0.00345449
0.00348216
0.00350939
0.00353618
0.00356253
0.00358844
0.00361391
0.00363895
0.00366354
0.0036877
0.00371141
0.00373469
0.00375752
0.00377992
0.00380187
0.00382338
0.00384445
0.00386508
0.00388527
0.00390501
0.0039243
0.00394315
0.00396155
0.00397951
0.00399701
0.00401406
0.00403066
0.0040468
0.00406248
0.00407771
0.00409247
0.00410677
0.0041206
0.00413396
0.00414684
0.00415926
0.00417119
0.00418263
0.00419359
0.00420406
0.00421403
0.0042235
0.00423247
0.00424093
0.00424887
0.00425629
0.00426318
0.00426954
0.00427536
0.00428063
0.00428535
0.00428951
0.0042931
0.00429612
0.00429855
0.00430039
0.00430162
0.00430225
0.0102714
0.00371573
0.00194483
0.00138839
0.00118805
0.00111319
0.00109147
0.00109564
0.00111367
0.0011396
0.00117026
0.00120382
0.00123923
0.00127582
0.00131317
0.00135102
0.00138917
0.0014275
0.00146593
0.00150439
0.00154283
0.00158121
0.0016195
0.00165768
0.00169573
0.00173362
0.00177135
0.00180891
0.00184627
0.00188342
0.00192037
0.00195708
0.00199357
0.00202981
0.00206581
0.00210155
0.00213702
0.00217222
0.00220714
0.00224178
0.00227613
0.00231018
0.00234394
0.00237738
0.00241051
0.00244333
0.00247583
0.002508
0.00253984
0.00257135
0.00260253
0.00263336
0.00266385
0.002694
0.0027238
0.00275325
0.00278234
0.00281108
0.00283946
0.00286748
0.00289513
0.00292243
0.00294935
0.00297591
0.0030021
0.00302792
0.00305336
0.00307843
0.00310313
0.00312745
0.00315139
0.00317496
0.00319815
0.00322095
0.00324337
0.00326541
0.00328707
0.00330834
0.00332923
0.00334973
0.00336984
0.00338956
0.0034089
0.00342784
0.00344639
0.00346454
0.0034823
0.00349967
0.00351663
0.0035332
0.00354937
0.00356513
0.00358049
0.00359544
0.00360999
0.00362412
0.00363784
0.00365115
0.00366403
0.0036765
0.00368855
0.00370017
0.00371136
0.00372212
0.00373244
0.00374232
0.00375176
0.00376076
0.0037693
0.00377739
0.00378501
0.00379218
0.00379887
0.00380509
0.00381082
0.00381607
0.00382083
0.00382509
0.00382884
0.00383208
0.0038348
0.003837
0.00383865
0.00383977
0.00384033
0.0117301
0.00419214
0.0021854
0.00154792
0.00130371
0.00119828
0.00115297
0.00113789
0.0011396
0.00115127
0.00116916
0.00119109
0.00121571
0.00124219
0.00126999
0.00129873
0.00132816
0.00135811
0.00138844
0.00141906
0.0014499
0.00148089
0.001512
0.00154318
0.00157441
0.00160566
0.0016369
0.00166812
0.00169929
0.0017304
0.00176144
0.00179239
0.00182323
0.00185397
0.00188457
0.00191505
0.00194537
0.00197554
0.00200554
0.00203537
0.00206502
0.00209447
0.00212373
0.00215278
0.00218162
0.00221024
0.00223863
0.0022668
0.00229472
0.00232239
0.00234982
0.00237699
0.0024039
0.00243055
0.00245692
0.00248303
0.00250885
0.00253439
0.00255964
0.0025846
0.00260927
0.00263364
0.0026577
0.00268147
0.00270493
0.00272807
0.00275091
0.00277343
0.00279563
0.00281751
0.00283907
0.0028603
0.00288121
0.00290178
0.00292203
0.00294194
0.00296152
0.00298076
0.00299966
0.00301823
0.00303645
0.00305432
0.00307185
0.00308903
0.00310587
0.00312235
0.00313848
0.00315425
0.00316967
0.00318473
0.00319943
0.00321377
0.00322774
0.00324135
0.00325458
0.00326745
0.00327994
0.00329206
0.0033038
0.00331516
0.00332614
0.00333672
0.00334692
0.00335673
0.00336614
0.00337515
0.00338376
0.00339196
0.00339975
0.00340712
0.00341408
0.00342061
0.00342672
0.00343239
0.00343762
0.00344241
0.00344675
0.00345063
0.00345406
0.00345701
0.0034595
0.0034615
0.00346301
0.00346403
0.00346454
0.0131544
0.00465398
0.00241995
0.00170464
0.00141827
0.00128372
0.00121625
0.00118339
0.00117026
0.00116916
0.00117579
0.00118756
0.00120288
0.00122073
0.00124041
0.00126145
0.00128355
0.00130645
0.00132999
0.00135405
0.00137852
0.00140333
0.00142841
0.00145373
0.00147923
0.00150489
0.00153066
0.00155654
0.00158249
0.00160849
0.00163452
0.00166058
0.00168663
0.00171267
0.00173869
0.00176467
0.00179059
0.00181645
0.00184224
0.00186794
0.00189355
0.00191905
0.00194444
0.00196971
0.00199484
0.00201984
0.00204469
0.00206938
0.00209391
0.00211827
0.00214245
0.00216645
0.00219026
0.00221387
0.00223728
0.00226049
0.00228347
0.00230624
0.00232879
0.0023511
0.00237318
0.00239503
0.00241662
0.00243797
0.00245907
0.00247991
0.0025005
0.00252082
0.00254087
0.00256065
0.00258015
0.00259939
0.00261834
0.002637
0.00265538
0.00267347
0.00269127
0.00270878
0.00272599
0.0027429
0.00275951
0.00277581
0.00279181
0.0028075
0.00282287
0.00283794
0.00285269
0.00286712
0.00288123
0.00289501
0.00290848
0.00292161
0.00293442
0.00294689
0.00295903
0.00297083
0.0029823
0.00299342
0.00300419
0.00301462
0.0030247
0.00303443
0.0030438
0.00305281
0.00306146
0.00306974
0.00307765
0.00308519
0.00309236
0.00309914
0.00310554
0.00311154
0.00311716
0.00312238
0.00312719
0.0031316
0.00313559
0.00313917
0.00314232
0.00314504
0.00314732
0.00314916
0.00315056
0.00315149
0.00315196
0.014538
0.00509982
0.00264754
0.0018577
0.00153091
0.00136858
0.00128016
0.00123067
0.00120382
0.00119109
0.00118756
0.0011903
0.00119742
0.00120772
0.00122036
0.00123478
0.00125058
0.00126746
0.00128522
0.00130369
0.00132275
0.0013423
0.00136227
0.0013826
0.00140324
0.00142414
0.00144526
0.00146658
0.00148807
0.0015097
0.00153146
0.00155331
0.00157525
0.00159726
0.00161932
0.00164142
0.00166354
0.00168568
0.00170781
0.00172994
0.00175204
0.0017741
0.00179612
0.00181809
0.00183999
0.00186182
0.00188357
0.00190523
0.00192678
0.00194824
0.00196957
0.00199079
0.00201187
0.00203282
0.00205362
0.00207427
0.00209477
0.0021151
0.00213526
0.00215525
0.00217505
0.00219467
0.00221409
0.00223332
0.00225234
0.00227116
0.00228976
0.00230815
0.00232631
0.00234425
0.00236196
0.00237943
0.00239667
0.00241366
0.00243041
0.00244691
0.00246316
0.00247915
0.00249488
0.00251035
0.00252555
0.00254049
0.00255516
0.00256955
0.00258366
0.00259749
0.00261105
0.00262431
0.00263729
0.00264998
0.00266237
0.00267447
0.00268627
0.00269777
0.00270896
0.00271985
0.00273043
0.0027407
0.00275065
0.00276028
0.00276959
0.00277858
0.00278724
0.00279557
0.00280357
0.00281123
0.00281855
0.00282553
0.00283216
0.00283844
0.00284436
0.00284992
0.00285512
0.00285995
0.00286441
0.0028685
0.00287219
0.00287551
0.00287843
0.00288095
0.00288306
0.00288477
0.00288606
0.00288692
0.00288736
0.0158786
0.00552943
0.00286788
0.00200678
0.00164128
0.00145243
0.00134409
0.0012789
0.00123923
0.00121571
0.00120288
0.00119742
0.00119719
0.00120077
0.0012072
0.0012158
0.00122611
0.00123777
0.00125052
0.00126417
0.00127857
0.0012936
0.00130918
0.00132523
0.00134168
0.00135849
0.00137561
0.00139301
0.00141065
0.00142852
0.00144657
0.0014648
0.00148318
0.00150169
0.00152032
0.00153904
0.00155786
0.00157674
0.00159568
0.00161468
0.0016337
0.00165275
0.00167181
0.00169088
0.00170993
0.00172897
0.00174798
0.00176696
0.00178589
0.00180477
0.00182358
0.00184232
0.00186099
0.00187957
0.00189805
0.00191644
0.00193472
0.00195288
0.00197092
0.00198882
0.0020066
0.00202423
0.00204172
0.00205905
0.00207622
0.00209323
0.00211007
0.00212673
0.00214321
0.00215951
0.00217561
0.00219152
0.00220723
0.00222273
0.00223803
0.00225311
0.00226798
0.00228263
0.00229705
0.00231124
0.0023252
0.00233892
0.00235241
0.00236565
0.00237865
0.0023914
0.00240389
0.00241613
0.00242812
0.00243984
0.00245129
0.00246248
0.00247339
0.00248404
0.0024944
0.00250449
0.00251429
0.00252381
0.00253304
0.00254198
0.00255062
0.00255896
0.00256701
0.00257475
0.00258218
0.0025893
0.0025961
0.00260259
0.00260876
0.0026146
0.00262011
0.00262528
0.00263012
0.00263462
0.00263877
0.00264257
0.00264602
0.0026491
0.00265182
0.00265417
0.00265614
0.00265773
0.00265893
0.00265974
0.00266014
0.017176
0.00594322
0.00308106
0.00215183
0.00174927
0.00153503
0.0014077
0.00132759
0.00127582
0.00124219
0.00122073
0.00120772
0.00120077
0.00119827
0.00119912
0.00120255
0.00120799
0.00121505
0.00122341
0.00123284
0.00124318
0.00125429
0.00126604
0.00127837
0.00129119
0.00130445
0.0013181
0.00133209
0.0013464
0.00136099
0.00137582
0.00139089
0.00140616
0.00142161
0.00143724
0.00145301
0.00146892
0.00148495
0.00150109
0.00151733
0.00153364
0.00155003
0.00156648
0.00158297
0.0015995
0.00161606
0.00163264
0.00164923
0.00166582
0.0016824
0.00169896
0.0017155
0.001732
0.00174846
0.00176487
0.00178122
0.0017975
0.00181371
0.00182984
0.00184588
0.00186183
0.00187768
0.00189342
0.00190904
0.00192454
0.00193992
0.00195517
0.00197027
0.00198524
0.00200005
0.00201471
0.0020292
0.00204354
0.0020577
0.00207169
0.00208549
0.00209912
0.00211255
0.00212579
0.00213883
0.00215167
0.00216431
0.00217673
0.00218895
0.00220094
0.00221272
0.00222426
0.00223559
0.00224667
0.00225753
0.00226814
0.00227852
0.00228864
0.00229852
0.00230815
0.00231752
0.00232664
0.00233549
0.00234408
0.0023524
0.00236044
0.00236822
0.00237571
0.00238293
0.00238986
0.0023965
0.00240285
0.0024089
0.00241466
0.00242011
0.00242526
0.0024301
0.00243462
0.00243882
0.0024427
0.00244625
0.00244947
0.00245236
0.0024549
0.00245709
0.00245894
0.00246042
0.00246155
0.0024623
0.00246268
0.0184311
0.00634192
0.00328736
0.00229295
0.00185488
0.00161632
0.00147079
0.00137645
0.00131317
0.00126999
0.00124041
0.00122036
0.0012072
0.00119912
0.0011949
0.00119364
0.00119472
0.00119766
0.00120212
0.00120783
0.00121458
0.00122222
0.00123063
0.00123969
0.00124934
0.00125949
0.0012701
0.00128111
0.0012925
0.00130421
0.00131623
0.00132852
0.00134106
0.00135383
0.00136682
0.00137999
0.00139334
0.00140685
0.00142051
0.00143431
0.00144822
0.00146224
0.00147636
0.00149057
0.00150486
0.00151921
0.00153361
0.00154807
0.00156256
0.00157708
0.00159161
0.00160616
0.00162072
0.00163526
0.0016498
0.00166431
0.00167879
0.00169324
0.00170764
0.00172199
0.00173628
0.00175051
0.00176466
0.00177873
0.00179272
0.00180661
0.00182041
0.0018341
0.00184768
0.00186114
0.00187448
0.00188769
0.00190077
0.00191371
0.0019265
0.00193915
0.00195164
0.00196397
0.00197613
0.00198813
0.00199995
0.0020116
0.00202306
0.00203433
0.00204542
0.0020563
0.00206699
0.00207748
0.00208776
0.00209783
0.00210768
0.00211732
0.00212673
0.00213592
0.00214488
0.00215361
0.0021621
0.00217035
0.00217836
0.00218612
0.00219364
0.0022009
0.0022079
0.00221464
0.00222112
0.00222733
0.00223327
0.00223894
0.00224433
0.00224944
0.00225426
0.00225879
0.00226302
0.00226696
0.0022706
0.00227393
0.00227695
0.00227966
0.00228204
0.0022841
0.00228583
0.00228722
0.00228828
0.00228899
0.00228934
0.0196456
0.00672638
0.00348713
0.0024303
0.00195817
0.00169626
0.00153329
0.0014253
0.00135102
0.00129873
0.00126145
0.00123478
0.0012158
0.00120255
0.00119364
0.0011881
0.0011852
0.00118442
0.00118537
0.00118774
0.0011913
0.00119587
0.0012013
0.00120748
0.00121431
0.00122172
0.00122965
0.00123804
0.00124685
0.00125603
0.00126556
0.0012754
0.00128554
0.00129594
0.00130658
0.00131746
0.00132854
0.00133981
0.00135127
0.00136289
0.00137467
0.00138658
0.00139863
0.00141079
0.00142306
0.00143543
0.00144789
0.00146042
0.00147302
0.00148569
0.0014984
0.00151116
0.00152395
0.00153676
0.0015496
0.00156244
0.00157529
0.00158813
0.00160096
0.00161377
0.00162655
0.00163929
0.001652
0.00166465
0.00167725
0.00168979
0.00170225
0.00171465
0.00172696
0.00173918
0.00175131
0.00176335
0.00177527
0.00178709
0.00179878
0.00181036
0.00182181
0.00183312
0.0018443
0.00185533
0.00186622
0.00187695
0.00188753
0.00189794
0.00190819
0.00191826
0.00192816
0.00193789
0.00194742
0.00195677
0.00196593
0.00197489
0.00198365
0.0019922
0.00200055
0.00200869
0.00201661
0.00202432
0.0020318
0.00203905
0.00204608
0.00205287
0.00205942
0.00206574
0.00207181
0.00207763
0.0020832
0.00208851
0.00209357
0.00209836
0.00210288
0.00210714
0.00211112
0.00211482
0.00211823
0.00212136
0.0021242
0.00212674
0.00212899
0.00213092
0.00213255
0.00213386
0.00213485
0.00213552
0.00213586
0.0208213
0.00709747
0.00368074
0.00256405
0.00205923
0.00177488
0.00159513
0.00147402
0.00138917
0.00132816
0.00128355
0.00125058
0.00122611
0.00120799
0.00119472
0.0011852
0.00117865
0.00117447
0.00117222
0.00117157
0.00117225
0.00117405
0.00117682
0.00118042
0.00118476
0.00118973
0.00119528
0.00120133
0.00120785
0.00121479
0.00122211
0.00122979
0.00123778
0.00124608
0.00125464
0.00126347
0.00127253
0.00128182
0.00129131
0.00130099
0.00131085
0.00132088
0.00133107
0.0013414
0.00135186
0.00136244
0.00137314
0.00138394
0.00139484
0.00140583
0.00141689
0.00142802
0.00143921
0.00145045
0.00146174
0.00147307
0.00148442
0.0014958
0.00150719
0.00151859
0.00152998
0.00154137
0.00155274
0.00156409
0.00157542
0.00158671
0.00159795
0.00160915
0.00162029
0.00163137
0.00164239
0.00165333
0.00166419
0.00167496
0.00168565
0.00169623
0.00170672
0.00171709
0.00172736
0.0017375
0.00174752
0.00175741
0.00176716
0.00177678
0.00178625
0.00179557
0.00180474
0.00181375
0.0018226
0.00183128
0.0018398
0.00184813
0.00185629
0.00186426
0.00187204
0.00187964
0.00188703
0.00189423
0.00190123
0.00190801
0.00191459
0.00192095
0.00192709
0.00193301
0.0019387
0.00194416
0.00194939
0.00195438
0.00195913
0.00196363
0.00196788
0.00197188
0.00197562
0.00197911
0.00198232
0.00198527
0.00198794
0.00199033
0.00199245
0.00199427
0.0019958
0.00199704
0.00199797
0.0019986
0.00199892
0.0219604
0.00745606
0.00386856
0.00269439
0.00215814
0.00185221
0.00165629
0.00152254
0.0014275
0.00135811
0.00130645
0.00126746
0.00123777
0.00121505
0.00119766
0.00118442
0.00117447
0.00116714
0.00116196
0.00115854
0.0011566
0.0011559
0.00115627
0.00115755
0.00115963
0.00116242
0.00116584
0.00116981
0.00117429
0.00117922
0.00118458
0.00119031
0.0011964
0.00120281
0.00120953
0.00121652
0.00122378
0.00123128
0.00123901
0.00124696
0.00125511
0.00126344
0.00127195
0.00128063
0.00128946
0.00129844
0.00130755
0.00131678
0.00132614
0.0013356
0.00134516
0.00135481
0.00136455
0.00137436
0.00138424
0.00139417
0.00140416
0.0014142
0.00142427
0.00143437
0.00144449
0.00145463
0.00146478
0.00147493
0.00148508
0.00149521
0.00150533
0.00151542
0.00152548
0.0015355
0.00154548
0.00155541
0.00156528
0.00157509
0.00158483
0.00159449
0.00160408
0.00161358
0.00162299
0.0016323
0.00164151
0.00165062
0.00165961
0.00166848
0.00167723
0.00168585
0.00169434
0.00170269
0.00171089
0.00171895
0.00172686
0.00173462
0.00174221
0.00174964
0.0017569
0.00176398
0.00177089
0.00177761
0.00178415
0.0017905
0.00179666
0.00180262
0.00180838
0.00181393
0.00181927
0.0018244
0.00182931
0.001834
0.00183846
0.0018427
0.0018467
0.00185046
0.00185399
0.00185726
0.00186029
0.00186307
0.00186559
0.00186785
0.00186984
0.00187156
0.001873
0.00187417
0.00187505
0.00187564
0.00187594
0.0230646
0.00780295
0.00405095
0.0028215
0.002255
0.00192828
0.00171676
0.0015708
0.00146593
0.00138844
0.00132999
0.00128522
0.00125052
0.00122341
0.00120212
0.00118537
0.00117222
0.00116196
0.00115405
0.00114808
0.00114373
0.00114074
0.00113891
0.00113809
0.00113814
0.00113895
0.00114045
0.00114255
0.00114519
0.00114833
0.00115191
0.00115591
0.00116029
0.00116502
0.00117007
0.00117542
0.00118106
0.00118696
0.00119311
0.00119949
0.00120609
0.0012129
0.0012199
0.00122709
0.00123445
0.00124197
0.00124964
0.00125746
0.00126541
0.00127348
0.00128168
0.00128998
0.00129839
0.00130689
0.00131548
0.00132414
0.00133288
0.00134168
0.00135054
0.00135945
0.0013684
0.00137739
0.00138641
0.00139545
0.0014045
0.00141357
0.00142264
0.0014317
0.00144075
0.00144979
0.0014588
0.00146779
0.00147674
0.00148565
0.00149451
0.00150331
0.00151206
0.00152074
0.00152936
0.00153789
0.00154634
0.00155471
0.00156298
0.00157116
0.00157923
0.00158719
0.00159504
0.00160277
0.00161037
0.00161785
0.00162519
0.0016324
0.00163946
0.00164638
0.00165314
0.00165975
0.0016662
0.00167248
0.0016786
0.00168454
0.0016903
0.00169589
0.00170128
0.00170649
0.0017115
0.00171632
0.00172093
0.00172534
0.00172954
0.00173352
0.00173729
0.00174083
0.00174415
0.00174724
0.0017501
0.00175271
0.00175509
0.00175722
0.0017591
0.00176072
0.00176208
0.00176318
0.00176401
0.00176457
0.00176486
0.024136
0.00813888
0.00422822
0.00294555
0.00234991
0.00200313
0.00177655
0.00161878
0.00150439
0.00141906
0.00135405
0.00130369
0.00126417
0.00123284
0.00120783
0.00118774
0.00117157
0.00115854
0.00114808
0.00113973
0.00113315
0.00112804
0.0011242
0.00112145
0.00111964
0.00111866
0.00111841
0.00111881
0.0011198
0.00112131
0.00112331
0.00112574
0.00112858
0.00113179
0.00113534
0.00113922
0.00114339
0.00114785
0.00115257
0.00115755
0.00116275
0.00116818
0.00117382
0.00117965
0.00118567
0.00119187
0.00119824
0.00120477
0.00121144
0.00121826
0.0012252
0.00123228
0.00123947
0.00124677
0.00125417
0.00126167
0.00126926
0.00127693
0.00128467
0.00129248
0.00130035
0.00130827
0.00131624
0.00132425
0.0013323
0.00134037
0.00134846
0.00135657
0.00136469
0.0013728
0.00138092
0.00138902
0.00139711
0.00140517
0.00141321
0.00142121
0.00142917
0.00143709
0.00144495
0.00145275
0.00146049
0.00146816
0.00147576
0.00148328
0.00149071
0.00149805
0.0015053
0.00151244
0.00151948
0.0015264
0.00153322
0.00153991
0.00154647
0.0015529
0.0015592
0.00156536
0.00157137
0.00157724
0.00158295
0.00158851
0.0015939
0.00159913
0.00160418
0.00160907
0.00161377
0.00161829
0.00162262
0.00162677
0.00163071
0.00163446
0.00163801
0.00164134
0.00164447
0.00164738
0.00165007
0.00165254
0.00165478
0.00165679
0.00165856
0.00166009
0.00166138
0.00166242
0.0016632
0.00166373
0.001664
0.0251762
0.00846453
0.00440068
0.00306669
0.00244294
0.0020768
0.00183565
0.00166645
0.00154283
0.0014499
0.00137852
0.00132275
0.00127857
0.00124318
0.00121458
0.0011913
0.00117225
0.0011566
0.00114373
0.00113315
0.00112447
0.0011174
0.0011117
0.00110716
0.00110365
0.00110103
0.00109918
0.00109804
0.00109752
0.00109755
0.0010981
0.00109912
0.00110056
0.00110239
0.00110459
0.00110713
0.00110999
0.00111314
0.00111658
0.00112027
0.00112421
0.00112839
0.00113279
0.0011374
0.00114221
0.00114721
0.00115238
0.00115773
0.00116324
0.00116891
0.00117472
0.00118067
0.00118674
0.00119294
0.00119926
0.00120569
0.00121221
0.00121884
0.00122555
0.00123234
0.00123921
0.00124615
0.00125315
0.0012602
0.00126731
0.00127446
0.00128164
0.00128886
0.0012961
0.00130336
0.00131063
0.00131791
0.00132519
0.00133246
0.00133972
0.00134697
0.00135419
0.00136138
0.00136854
0.00137565
0.00138272
0.00138974
0.0013967
0.00140359
0.00141042
0.00141717
0.00142385
0.00143044
0.00143694
0.00144334
0.00144964
0.00145584
0.00146193
0.00146791
0.00147377
0.0014795
0.0014851
0.00149057
0.0014959
0.00150109
0.00150613
0.00151102
0.00151575
0.00152033
0.00152474
0.00152898
0.00153304
0.00153693
0.00154064
0.00154417
0.0015475
0.00155064
0.00155359
0.00155633
0.00155886
0.00156119
0.0015633
0.00156519
0.00156686
0.00156831
0.00156952
0.0015705
0.00157124
0.00157174
0.00157199
0.026187
0.00878053
0.0045686
0.00318508
0.00253418
0.00214932
0.00189408
0.00171378
0.00158121
0.00148089
0.00140333
0.0013423
0.0012936
0.00125429
0.00122222
0.00119587
0.00117405
0.0011559
0.00114074
0.00112804
0.0011174
0.00110849
0.00110104
0.00109486
0.00108976
0.00108562
0.00108231
0.00107975
0.00107785
0.00107654
0.00107577
0.0010755
0.00107567
0.00107626
0.00107723
0.00107855
0.00108021
0.00108218
0.00108444
0.00108698
0.00108977
0.00109281
0.00109609
0.00109958
0.00110329
0.00110719
0.00111128
0.00111556
0.00112
0.00112461
0.00112938
0.0011343
0.00113935
0.00114454
0.00114986
0.0011553
0.00116085
0.00116651
0.00117227
0.00117812
0.00118406
0.00119008
0.00119618
0.00120235
0.00120858
0.00121487
0.00122121
0.00122759
0.00123402
0.00124047
0.00124696
0.00125346
0.00125998