/*--------------------------------*- C++ -*----------------------------------*\
| =========                 |                                                 |
| \\      /  F ield         | OpenFOAM: The Open Source CFD Toolbox           |
|  \\    /   O peration     | Version:  4.x                                   |
|   \\  /    A nd           | Web:      www.OpenFOAM.org                      |
|    \\/     M anipulation  |                                                 |
\*---------------------------------------------------------------------------*/
FoamFile
{
    version     2.0;
    format      ascii;
    class       volScalarField;
    location    "99.27";
    object      k;
}
// * * * * * * * * * * * * * * * * * * * * * * * * * * * * * * * * * * * * * //

dimensions      [0 2 -2 0 0 0 0];

internalField   nonuniform List<scalar> 
15625
(
0.000436239
0.000504596
0.000634506
0.00080275
0.000989174
0.00118003
0.00136711
0.00154612
0.00171522
0.00187399
0.00202277
0.00216223
0.00229319
0.00241646
0.00253279
0.00264287
0.00274729
0.00284659
0.00294124
0.00303163
0.00311812
0.00320103
0.00328063
0.00335717
0.00343087
0.00350191
0.00357049
0.00363675
0.00370084
0.00376289
0.00382301
0.00388131
0.0039379
0.00399285
0.00404626
0.0040982
0.00414874
0.00419794
0.00424588
0.00429259
0.00433814
0.00438257
0.00442592
0.00446825
0.00450959
0.00454997
0.00458944
0.00462802
0.00466574
0.00470263
0.00473873
0.00477405
0.00480862
0.00484246
0.00487559
0.00490803
0.00493981
0.00497093
0.00500142
0.00503129
0.00506056
0.00508924
0.00511734
0.00514488
0.00517187
0.00519832
0.00522424
0.00524964
0.00527453
0.00529893
0.00532282
0.00534624
0.00536918
0.00539164
0.00541365
0.0054352
0.00545629
0.00547695
0.00549716
0.00551693
0.00553628
0.00555519
0.00557369
0.00559176
0.00560941
0.00562666
0.00564348
0.0056599
0.00567592
0.00569152
0.00570672
0.00572152
0.00573592
0.00574991
0.0057635
0.00577669
0.00578948
0.00580187
0.00581386
0.00582544
0.00583662
0.00584739
0.00585776
0.00586772
0.00587727
0.0058864
0.00589512
0.00590342
0.00591131
0.00591876
0.00592579
0.00593239
0.00593855
0.00594428
0.00594955
0.00595438
0.00595876
0.00596267
0.00596612
0.0059691
0.0059716
0.00597361
0.00597514
0.00597616
0.00597668
0.000504596
0.000416931
0.000438978
0.000511786
0.000607669
0.000711954
0.000816752
0.000918065
0.00101413
0.00110439
0.00118894
0.00126814
0.00134246
0.00141238
0.00147837
0.00154083
0.00160011
0.00165653
0.00171036
0.00176183
0.00181116
0.00185852
0.00190406
0.00194793
0.00199025
0.00203113
0.00207067
0.00210896
0.00214606
0.00218207
0.00221703
0.00225101
0.00228406
0.00231624
0.00234758
0.00237813
0.00240792
0.00243699
0.00246537
0.0024931
0.00252019
0.00254668
0.00257259
0.00259794
0.00262276
0.00264705
0.00267084
0.00269415
0.00271699
0.00273938
0.00276133
0.00278285
0.00280396
0.00282466
0.00284498
0.00286491
0.00288447
0.00290366
0.0029225
0.00294099
0.00295915
0.00297697
0.00299446
0.00301163
0.00302849
0.00304505
0.00306129
0.00307724
0.0030929
0.00310826
0.00312334
0.00313813
0.00315265
0.00316689
0.00318086
0.00319455
0.00320798
0.00322114
0.00323404
0.00324668
0.00325906
0.00327118
0.00328305
0.00329465
0.00330601
0.00331711
0.00332795
0.00333855
0.00334889
0.00335898
0.00336882
0.00337841
0.00338774
0.00339682
0.00340565
0.00341423
0.00342255
0.00343062
0.00343844
0.00344599
0.00345329
0.00346033
0.00346711
0.00347362
0.00347987
0.00348585
0.00349157
0.00349701
0.00350218
0.00350708
0.00351169
0.00351603
0.00352008
0.00352384
0.00352731
0.00353049
0.00353337
0.00353594
0.00353822
0.00354018
0.00354182
0.00354315
0.00354415
0.00354483
0.00354517
0.000634506
0.000438978
0.000412835
0.000463341
0.000548735
0.000648152
0.000750834
0.000851432
0.000947534
0.00103828
0.00112358
0.00120372
0.00127912
0.00135022
0.00141746
0.00148123
0.00154188
0.00159971
0.001655
0.00170797
0.00175882
0.00180773
0.00185485
0.00190033
0.00194427
0.0019868
0.00202801
0.00206798
0.00210679
0.00214451
0.00218121
0.00221694
0.00225175
0.0022857
0.00231882
0.00235116
0.00238275
0.00241363
0.00244383
0.00247337
0.00250229
0.00253061
0.00255835
0.00258553
0.00261218
0.0026383
0.00266393
0.00268907
0.00271375
0.00273796
0.00276174
0.00278508
0.002808
0.00283052
0.00285264
0.00287437
0.00289572
0.0029167
0.00293731
0.00295757
0.00297748
0.00299704
0.00301627
0.00303517
0.00305374
0.00307198
0.00308991
0.00310753
0.00312484
0.00314185
0.00315855
0.00317495
0.00319106
0.00320688
0.0032224
0.00323764
0.00325259
0.00326725
0.00328164
0.00329574
0.00330956
0.0033231
0.00333637
0.00334935
0.00336206
0.00337449
0.00338665
0.00339853
0.00341014
0.00342146
0.00343251
0.00344329
0.00345378
0.003464
0.00347394
0.0034836
0.00349297
0.00350206
0.00351087
0.00351939
0.00352762
0.00353557
0.00354322
0.00355057
0.00355763
0.00356439
0.00357085
0.00357701
0.00358285
0.00358839
0.00359361
0.00359852
0.0036031
0.00360736
0.00361129
0.00361489
0.00361815
0.00362106
0.00362364
0.00362586
0.00362772
0.00362923
0.00363036
0.00363113
0.00363151
0.00080275
0.000511786
0.000463341
0.000523204
0.000629561
0.000752136
0.000876718
0.000997069
0.00111079
0.00121726
0.0013167
0.00140963
0.00149666
0.00157843
0.00165551
0.00172838
0.00179751
0.00186327
0.00192599
0.00198596
0.00204343
0.00209861
0.0021517
0.00220286
0.00225224
0.00229996
0.00234615
0.00239091
0.00243434
0.00247651
0.0025175
0.00255738
0.00259622
0.00263406
0.00267097
0.00270699
0.00274215
0.00277652
0.00281011
0.00284296
0.0028751
0.00290657
0.00293739
0.00296758
0.00299717
0.00302618
0.00305463
0.00308253
0.00310991
0.00313678
0.00316316
0.00318905
0.00321448
0.00323945
0.00326398
0.00328808
0.00331175
0.00333501
0.00335787
0.00338033
0.0034024
0.00342409
0.0034454
0.00346635
0.00348693
0.00350716
0.00352704
0.00354656
0.00356575
0.0035846
0.00360311
0.00362129
0.00363915
0.00365668
0.00367388
0.00369077
0.00370734
0.00372359
0.00373953
0.00375516
0.00377048
0.00378549
0.00380019
0.00381458
0.00382867
0.00384245
0.00385592
0.00386909
0.00388195
0.0038945
0.00390675
0.00391869
0.00393032
0.00394164
0.00395266
0.00396336
0.00397375
0.00398382
0.00399358
0.00400303
0.00401215
0.00402095
0.00402943
0.00403758
0.0040454
0.00405289
0.00406005
0.00406687
0.00407335
0.00407948
0.00408527
0.0040907
0.00409578
0.0041005
0.00410486
0.00410884
0.00411246
0.00411569
0.00411854
0.004121
0.00412307
0.00412473
0.00412599
0.00412684
0.00412727
0.000989174
0.000607669
0.000548735
0.000629561
0.00076411
0.000912274
0.00105797
0.00119553
0.00132348
0.00144194
0.00155165
0.00165353
0.00174845
0.00183725
0.00192064
0.00199924
0.00207358
0.00214412
0.00221125
0.00227531
0.00233658
0.00239532
0.00245174
0.00250604
0.00255839
0.00260892
0.00265779
0.0027051
0.00275095
0.00279545
0.00283867
0.0028807
0.00292161
0.00296145
0.00300028
0.00303817
0.00307514
0.00311126
0.00314655
0.00318106
0.00321483
0.00324787
0.00328023
0.00331192
0.00334298
0.00337342
0.00340327
0.00343255
0.00346128
0.00348947
0.00351714
0.0035443
0.00357098
0.00359718
0.00362291
0.00364819
0.00367303
0.00369743
0.00372141
0.00374497
0.00376813
0.00379089
0.00381326
0.00383524
0.00385684
0.00387807
0.00389893
0.00391943
0.00393957
0.00395935
0.00397879
0.00399788
0.00401662
0.00403503
0.0040531
0.00407083
0.00408824
0.00410531
0.00412205
0.00413847
0.00415456
0.00417032
0.00418577
0.00420089
0.00421569
0.00423017
0.00424433
0.00425816
0.00427168
0.00428487
0.00429774
0.00431029
0.00432252
0.00433442
0.004346
0.00435725
0.00436817
0.00437876
0.00438903
0.00439895
0.00440855
0.0044178
0.00442672
0.00443529
0.00444351
0.00445139
0.00445892
0.00446609
0.0044729
0.00447935
0.00448544
0.00449116
0.0044965
0.00450146
0.00450604
0.00451023
0.00451403
0.00451744
0.00452043
0.00452302
0.0045252
0.00452695
0.00452827
0.00452916
0.00452961
0.00118003
0.000711954
0.000648152
0.000752136
0.000912274
0.00108062
0.00124119
0.00138988
0.0015264
0.00165168
0.00176697
0.00187349
0.00197236
0.00206453
0.00215084
0.00223199
0.00230858
0.00238111
0.00245002
0.00251566
0.00257837
0.0026384
0.00269601
0.00275139
0.00280473
0.0028562
0.00290592
0.00295402
0.00300063
0.00304584
0.00308974
0.0031324
0.00317392
0.00321434
0.00325374
0.00329217
0.00332967
0.0033663
0.0034021
0.0034371
0.00347134
0.00350486
0.00353768
0.00356983
0.00360134
0.00363223
0.00366252
0.00369224
0.0037214
0.00375003
0.00377813
0.00380572
0.00383282
0.00385944
0.0038856
0.0039113
0.00393655
0.00396137
0.00398577
0.00400974
0.00403331
0.00405648
0.00407926
0.00410164
0.00412365
0.00414528
0.00416654
0.00418744
0.00420797
0.00422815
0.00424798
0.00426745
0.00428658
0.00430537
0.00432382
0.00434193
0.0043597
0.00437714
0.00439424
0.00441102
0.00442747
0.00444358
0.00445937
0.00447484
0.00448997
0.00450479
0.00451927
0.00453343
0.00454726
0.00456076
0.00457394
0.00458679
0.00459931
0.0046115
0.00462336
0.00463488
0.00464607
0.00465692
0.00466744
0.00467761
0.00468744
0.00469693
0.00470607
0.00471486
0.00472329
0.00473137
0.00473908
0.00474644
0.00475343
0.00476004
0.00476629
0.00477215
0.00477763
0.00478272
0.00478742
0.00479172
0.00479562
0.00479911
0.00480219
0.00480484
0.00480707
0.00480887
0.00481023
0.00481114
0.0048116
0.00136711
0.000816752
0.000750834
0.000876718
0.00105797
0.00124119
0.00141175
0.00156731
0.00170874
0.00183766
0.0019557
0.00206434
0.00216485
0.00225829
0.00234558
0.00242746
0.00250459
0.0025775
0.00264664
0.00271242
0.00277517
0.00283518
0.00289269
0.00294793
0.00300109
0.00305233
0.00310181
0.00314966
0.00319599
0.00324092
0.00328452
0.0033269
0.00336812
0.00340825
0.00344736
0.00348551
0.00352274
0.0035591
0.00359464
0.00362939
0.00366339
0.00369668
0.00372928
0.00376123
0.00379255
0.00382326
0.00385338
0.00388295
0.00391197
0.00394046
0.00396844
0.00399593
0.00402293
0.00404947
0.00407555
0.00410119
0.00412639
0.00415117
0.00417553
0.00419949
0.00422304
0.00424621
0.00426899
0.00429139
0.00431342
0.00433508
0.00435637
0.00437731
0.0043979
0.00441813
0.00443802
0.00445756
0.00447676
0.00449563
0.00451416
0.00453235
0.00455021
0.00456775
0.00458495
0.00460183
0.00461838
0.0046346
0.0046505
0.00466607
0.00468132
0.00469624
0.00471084
0.00472511
0.00473906
0.00475268
0.00476597
0.00477894
0.00479157
0.00480388
0.00481585
0.00482748
0.00483879
0.00484975
0.00486037
0.00487065
0.00488059
0.00489018
0.00489941
0.0049083
0.00491683
0.004925
0.0049328
0.00494024
0.00494731
0.00495401
0.00496032
0.00496626
0.0049718
0.00497695
0.00498171
0.00498606
0.00499001
0.00499355
0.00499666
0.00499935
0.00500161
0.00500343
0.0050048
0.00500573
0.0050062
0.00154612
0.000918065
0.000851432
0.000997069
0.00119553
0.00138988
0.00156731
0.0017272
0.00187147
0.00200228
0.00212158
0.00223102
0.00233198
0.0024256
0.00251285
0.00259452
0.00267129
0.00274371
0.00281229
0.00287741
0.00293944
0.00299868
0.00305538
0.00310978
0.00316208
0.00321244
0.00326104
0.00330799
0.00335343
0.00339747
0.00344019
0.0034817
0.00352206
0.00356135
0.00359963
0.00363696
0.00367339
0.00370898
0.00374376
0.00377778
0.00381107
0.00384366
0.0038756
0.00390689
0.00393759
0.00396769
0.00399724
0.00402624
0.00405472
0.00408269
0.00411017
0.00413718
0.00416373
0.00418983
0.0042155
0.00424074
0.00426556
0.00428998
0.004314
0.00433763
0.00436087
0.00438375
0.00440625
0.00442839
0.00445017
0.0044716
0.00449267
0.00451341
0.0045338
0.00455385
0.00457357
0.00459296
0.00461202
0.00463075
0.00464915
0.00466723
0.00468499
0.00470243
0.00471955
0.00473634
0.00475282
0.00476898
0.00478482
0.00480034
0.00481555
0.00483043
0.004845
0.00485925
0.00487317
0.00488677
0.00490005
0.00491301
0.00492564
0.00493794
0.00494991
0.00496155
0.00497286
0.00498383
0.00499446
0.00500476
0.00501471
0.00502431
0.00503357
0.00504247
0.00505102
0.00505921
0.00506703
0.00507449
0.00508158
0.00508829
0.00509463
0.00510058
0.00510615
0.00511132
0.00511609
0.00512046
0.00512442
0.00512797
0.00513109
0.0051338
0.00513606
0.00513789
0.00513927
0.0051402
0.00514067
0.00171522
0.00101413
0.000947534
0.00111079
0.00132348
0.0015264
0.00170874
0.00187147
0.00201739
0.00214914
0.00226891
0.00237847
0.00247928
0.00257256
0.00265928
0.00274028
0.00281626
0.0028878
0.0029554
0.00301948
0.0030804
0.00313849
0.00319401
0.0032472
0.00329827
0.00334739
0.00339473
0.00344043
0.00348462
0.00352741
0.0035689
0.00360918
0.00364833
0.00368642
0.00372353
0.00375971
0.00379501
0.00382949
0.00386318
0.00389614
0.0039284
0.00395998
0.00399093
0.00402128
0.00405104
0.00408024
0.00410891
0.00413706
0.00416471
0.00419189
0.0042186
0.00424487
0.0042707
0.0042961
0.0043211
0.00434569
0.00436989
0.00439371
0.00441715
0.00444023
0.00446294
0.00448531
0.00450732
0.00452899
0.00455032
0.00457132
0.00459198
0.00461232
0.00463234
0.00465204
0.00467141
0.00469047
0.00470922
0.00472766
0.00474578
0.00476359
0.0047811
0.00479829
0.00481518
0.00483176
0.00484804
0.004864
0.00487966
0.00489501
0.00491006
0.00492479
0.00493921
0.00495332
0.00496712
0.0049806
0.00499377
0.00500662
0.00501916
0.00503137
0.00504326
0.00505482
0.00506605
0.00507696
0.00508753
0.00509777
0.00510766
0.00511722
0.00512643
0.00513529
0.0051438
0.00515195
0.00515975
0.00516718
0.00517424
0.00518093
0.00518725
0.00519318
0.00519873
0.00520388
0.00520864
0.005213
0.00521695
0.00522049
0.00522361
0.0052263
0.00522857
0.00523039
0.00523177
0.0052327
0.00523316
0.00187399
0.00110439
0.00103828
0.00121726
0.00144194
0.00165168
0.00183766
0.00200228
0.00214914
0.00228127
0.00240106
0.0025104
0.00261079
0.00270348
0.00278947
0.00286962
0.00294464
0.00301513
0.00308159
0.00314447
0.00320414
0.00326091
0.00331508
0.00336689
0.00341655
0.00346425
0.00351016
0.00355442
0.00359717
0.00363852
0.00367857
0.00371742
0.00375516
0.00379186
0.00382758
0.00386239
0.00389635
0.00392951
0.0039619
0.00399359
0.00402459
0.00405495
0.00408471
0.00411388
0.0041425
0.00417058
0.00419817
0.00422526
0.00425188
0.00427806
0.0043038
0.00432912
0.00435403
0.00437855
0.00440268
0.00442644
0.00444983
0.00447286
0.00449555
0.0045179
0.00453991
0.00456159
0.00458294
0.00460398
0.0046247
0.00464511
0.00466521
0.00468501
0.0047045
0.0047237
0.00474259
0.00476119
0.00477949
0.0047975
0.00481522
0.00483264
0.00484977
0.00486661
0.00488315
0.00489941
0.00491537
0.00493104
0.00494641
0.00496149
0.00497628
0.00499076
0.00500495
0.00501884
0.00503243
0.00504571
0.00505869
0.00507136
0.00508372
0.00509577
0.00510751
0.00511892
0.00513002
0.0051408
0.00515125
0.00516137
0.00517116
0.00518061
0.00518973
0.0051985
0.00520692
0.005215
0.00522272
0.00523009
0.00523709
0.00524372
0.00524998
0.00525586
0.00526137
0.00526648
0.0052712
0.00527553
0.00527945
0.00528296
0.00528606
0.00528873
0.00529098
0.00529279
0.00529416
0.00529508
0.00529554
0.00202277
0.00118894
0.00112358
0.0013167
0.00155165
0.00176697
0.0019557
0.00212158
0.00226891
0.00240106
0.00252062
0.00262953
0.00272937
0.00282137
0.00290657
0.00298583
0.00305985
0.00312926
0.00319457
0.00325622
0.0033146
0.00337003
0.00342282
0.0034732
0.00352141
0.00356763
0.00361204
0.00365479
0.00369601
0.00373583
0.00377436
0.00381169
0.00384791
0.0038831
0.00391732
0.00395065
0.00398314
0.00401485
0.00404581
0.00407609
0.00410571
0.0041347
0.00416312
0.00419098
0.00421831
0.00424513
0.00427148
0.00429737
0.00432281
0.00434784
0.00437245
0.00439668
0.00442053
0.004444
0.00446713
0.0044899
0.00451234
0.00453445
0.00455624
0.00457772
0.00459889
0.00461975
0.00464031
0.00466058
0.00468057
0.00470026
0.00471967
0.0047388
0.00475765
0.00477622
0.00479452
0.00481254
0.00483028
0.00484776
0.00486496
0.00488189
0.00489854
0.00491492
0.00493103
0.00494686
0.00496242
0.0049777
0.00499271
0.00500743
0.00502187
0.00503604
0.00504991
0.0050635
0.00507681
0.00508982
0.00510254
0.00511496
0.00512709
0.00513891
0.00515044
0.00516165
0.00517256
0.00518315
0.00519343
0.00520339
0.00521302
0.00522233
0.00523131
0.00523995
0.00524825
0.00525621
0.00526383
0.00527109
0.005278
0.00528454
0.00529072
0.00529653
0.00530196
0.00530701
0.00531168
0.00531595
0.00531983
0.0053233
0.00532636
0.005329
0.00533122
0.00533301
0.00533436
0.00533527
0.00533573
0.00216223
0.00126814
0.00120372
0.00140963
0.00165353
0.00187349
0.00206434
0.00223102
0.00237847
0.0025104
0.00262953
0.00273791
0.00283711
0.0029284
0.0030128
0.00309118
0.00316424
0.00323262
0.00329681
0.00335729
0.00341443
0.00346857
0.00352
0.003569
0.00361578
0.00366054
0.00370346
0.0037447
0.0037844
0.00382268
0.00385966
0.00389544
0.00393011
0.00396375
0.00399643
0.00402822
0.00405919
0.00408938
0.00411884
0.00414763
0.00417578
0.00420333
0.00423032
0.00425677
0.00428272
0.00430819
0.0043332
0.00435778
0.00438194
0.00440571
0.0044291
0.00445212
0.00447479
0.00449712
0.00451912
0.00454081
0.00456218
0.00458326
0.00460404
0.00462453
0.00464474
0.00466468
0.00468434
0.00470374
0.00472287
0.00474175
0.00476036
0.00477872
0.00479682
0.00481467
0.00483227
0.00484962
0.00486672
0.00488356
0.00490016
0.0049165
0.00493259
0.00494843
0.00496401
0.00497934
0.00499442
0.00500923
0.00502379
0.00503809
0.00505212
0.00506588
0.00507938
0.00509261
0.00510556
0.00511824
0.00513064
0.00514276
0.0051546
0.00516615
0.0051774
0.00518837
0.00519903
0.0052094
0.00521946
0.00522921
0.00523864
0.00524777
0.00525657
0.00526504
0.00527319
0.005281
0.00528848
0.00529561
0.00530239
0.00530883
0.0053149
0.00532061
0.00532595
0.00533092
0.00533551
0.00533971
0.00534352
0.00534694
0.00534995
0.00535255
0.00535474
0.0053565
0.00535783
0.00535873
0.00535918
0.00229319
0.00134246
0.00127912
0.00149666
0.00174845
0.00197236
0.00216485
0.00233198
0.00247928
0.00261079
0.00272937
0.00283711
0.00293563
0.00302619
0.00310981
0.00318734
0.00325951
0.00332691
0.00339008
0.00344946
0.00350544
0.00355837
0.00360855
0.00365623
0.00370165
0.00374501
0.00378651
0.00382629
0.00386451
0.00390129
0.00393676
0.00397101
0.00400414
0.00403623
0.00406737
0.00409762
0.00412704
0.0041557
0.00418364
0.00421092
0.00423757
0.00426363
0.00428914
0.00431414
0.00433865
0.0043627
0.00438632
0.00440952
0.00443233
0.00445477
0.00447686
0.0044986
0.00452001
0.00454112
0.00456192
0.00458242
0.00460265
0.0046226
0.00464229
0.00466171
0.00468088
0.0046998
0.00471848
0.00473691
0.00475511
0.00477308
0.00479081
0.00480831
0.00482558
0.00484262
0.00485944
0.00487603
0.0048924
0.00490853
0.00492444
0.00494012
0.00495557
0.00497079
0.00498578
0.00500054
0.00501506
0.00502934
0.00504338
0.00505718
0.00507073
0.00508404
0.0050971
0.0051099
0.00512245
0.00513474
0.00514677
0.00515853
0.00517003
0.00518125
0.00519219
0.00520285
0.00521323
0.00522333
0.00523313
0.00524263
0.00525183
0.00526073
0.00526932
0.0052776
0.00528556
0.00529319
0.0053005
0.00530747
0.00531411
0.0053204
0.00532635
0.00533194
0.00533717
0.00534203
0.00534653
0.00535065
0.00535438
0.00535773
0.00536068
0.00536323
0.00536538
0.00536711
0.00536841
0.00536929
0.00536973
0.00241646
0.00141238
0.00135022
0.00157843
0.00183725
0.00206453
0.00225829
0.0024256
0.00257256
0.00270348
0.00282137
0.0029284
0.00302619
0.003116
0.00319885
0.00327559
0.00334691
0.00341343
0.00347565
0.00353403
0.00358895
0.00364077
0.00368978
0.00373624
0.0037804
0.00382247
0.00386262
0.00390102
0.00393784
0.00397319
0.0040072
0.00403997
0.00407161
0.00410221
0.00413184
0.00416057
0.00418848
0.00421562
0.00424204
0.00426781
0.00429295
0.00431752
0.00434155
0.00436507
0.00438812
0.00441073
0.00443291
0.00445471
0.00447613
0.00449719
0.00451792
0.00453834
0.00455844
0.00457826
0.0045978
0.00461707
0.00463609
0.00465485
0.00467337
0.00469166
0.00470972
0.00472756
0.00474517
0.00476258
0.00477977
0.00479675
0.00481353
0.0048301
0.00484647
0.00486264
0.0048786
0.00489436
0.00490992
0.00492528
0.00494044
0.00495539
0.00497013
0.00498466
0.00499899
0.00501311
0.00502701
0.00504069
0.00505416
0.0050674
0.00508042
0.00509322
0.00510578
0.0051181
0.0051302
0.00514204
0.00515365
0.005165
0.00517611
0.00518696
0.00519754
0.00520787
0.00521792
0.0052277
0.0052372
0.00524642
0.00525536
0.005264
0.00527234
0.00528039
0.00528813
0.00529556
0.00530267
0.00530946
0.00531592
0.00532205
0.00532785
0.0053333
0.0053384
0.00534315
0.00534753
0.00535155
0.0053552
0.00535847
0.00536135
0.00536384
0.00536594
0.00536763
0.0053689
0.00536976
0.00537019
0.00253279
0.00147837
0.00141746
0.00165551
0.00192064
0.00215084
0.00234558
0.00251285
0.00265928
0.00278947
0.00290657
0.0030128
0.00310981
0.00319885
0.00328094
0.00335691
0.00342744
0.00349313
0.00355449
0.00361196
0.00366592
0.00371673
0.00376468
0.00381004
0.00385304
0.0038939
0.00393281
0.00396994
0.00400544
0.00403944
0.00407208
0.00410346
0.00413368
0.00416284
0.00419102
0.00421829
0.00424472
0.00427038
0.00429533
0.0043196
0.00434327
0.00436635
0.00438891
0.00441096
0.00443255
0.00445371
0.00447446
0.00449483
0.00451484
0.00453451
0.00455387
0.00457292
0.00459169
0.00461019
0.00462843
0.00464642
0.00466418
0.00468171
0.00469902
0.00471612
0.00473302
0.00474972
0.00476622
0.00478254
0.00479867
0.00481461
0.00483037
0.00484596
0.00486136
0.00487659
0.00489164
0.00490652
0.00492121
0.00493573
0.00495007
0.00496423
0.00497821
0.004992
0.0050056
0.00501902
0.00503225
0.00504528
0.00505812
0.00507075
0.00508318
0.00509541
0.00510742
0.00511922
0.00513081
0.00514217
0.0051533
0.00516421
0.00517488
0.00518531
0.0051955
0.00520544
0.00521513
0.00522456
0.00523373
0.00524263
0.00525126
0.00525961
0.00526768
0.00527547
0.00528296
0.00529016
0.00529705
0.00530363
0.0053099
0.00531585
0.00532147
0.00532676
0.00533172
0.00533633
0.00534059
0.0053445
0.00534804
0.00535122
0.00535403
0.00535645
0.00535849
0.00536013
0.00536137
0.00536221
0.00536263
0.00264287
0.00154083
0.00148123
0.00172838
0.00199924
0.00223199
0.00242746
0.00259452
0.00274028
0.00286962
0.00298583
0.00309118
0.00318734
0.00327559
0.00335691
0.00343211
0.00350189
0.00356681
0.00362737
0.00368401
0.00373711
0.003787
0.003834
0.00387835
0.0039203
0.00396007
0.00399785
0.0040338
0.00406808
0.00410083
0.00413219
0.00416226
0.00419114
0.00421894
0.00424574
0.00427162
0.00429664
0.00432088
0.00434439
0.00436723
0.00438945
0.00441109
0.0044322
0.00445281
0.00447297
0.00449269
0.00451201
0.00453096
0.00454956
0.00456784
0.00458581
0.0046035
0.00462091
0.00463807
0.00465499
0.00467168
0.00468816
0.00470443
0.0047205
0.00473638
0.00475207
0.00476759
0.00478294
0.00479813
0.00481315
0.004828
0.00484271
0.00485725
0.00487165
0.00488589
0.00489997
0.00491391
0.00492769
0.00494132
0.00495479
0.00496811
0.00498126
0.00499426
0.00500709
0.00501976
0.00503226
0.00504459
0.00505675
0.00506873
0.00508052
0.00509213
0.00510355
0.00511478
0.00512581
0.00513664
0.00514726
0.00515767
0.00516787
0.00517785
0.0051876
0.00519712
0.00520641
0.00521545
0.00522425
0.0052328
0.0052411
0.00524913
0.0052569
0.00526439
0.00527161
0.00527855
0.00528519
0.00529154
0.0052976
0.00530334
0.00530877
0.00531389
0.00531868
0.00532314
0.00532726
0.00533105
0.00533448
0.00533755
0.00534027
0.00534262
0.00534459
0.00534618
0.00534739
0.0053482
0.0053486
0.00274729
0.00160011
0.00154188
0.00179751
0.00207358
0.00230858
0.00250459
0.00267129
0.00281626
0.00294464
0.00305985
0.00316424
0.00325951
0.00334691
0.00342744
0.00350189
0.00357093
0.00363511
0.00369493
0.0037508
0.00380311
0.00385218
0.00389831
0.00394175
0.00398276
0.00402154
0.00405828
0.00409315
0.00412632
0.00415793
0.0041881
0.00421695
0.00424459
0.00427112
0.00429662
0.00432118
0.00434486
0.00436775
0.00438989
0.00441135
0.00443218
0.00445243
0.00447213
0.00449134
0.00451009
0.00452841
0.00454633
0.00456388
0.00458109
0.00459799
0.00461458
0.0046309
0.00464696
0.00466278
0.00467837
0.00469375
0.00470893
0.00472392
0.00473873
0.00475336
0.00476784
0.00478215
0.00479632
0.00481034
0.00482421
0.00483795
0.00485156
0.00486503
0.00487837
0.00489158
0.00490466
0.00491762
0.00493044
0.00494313
0.00495569
0.00496812
0.00498041
0.00499257
0.00500459
0.00501646
0.00502819
0.00503977
0.0050512
0.00506248
0.00507359
0.00508455
0.00509533
0.00510594
0.00511638
0.00512664
0.00513671
0.00514658
0.00515627
0.00516575
0.00517503
0.00518409
0.00519294
0.00520157
0.00520997
0.00521814
0.00522607
0.00523375
0.00524119
0.00524837
0.00525529
0.00526194
0.00526831
0.00527441
0.00528022
0.00528574
0.00529097
0.00529589
0.0053005
0.00530479
0.00530876
0.00531241
0.00531571
0.00531868
0.0053213
0.00532356
0.00532546
0.005327
0.00532816
0.00532894
0.00532934
0.00284659
0.00165653
0.00159971
0.00186327
0.00214412
0.00238111
0.0025775
0.00274371
0.0028878
0.00301513
0.00312926
0.00323262
0.00332691
0.00341343
0.00349313
0.00356681
0.00363511
0.00369858
0.00375769
0.00381285
0.00386443
0.00391274
0.00395809
0.00400071
0.00404086
0.00407874
0.00411455
0.00414845
0.00418061
0.00421116
0.00424024
0.00426797
0.00429446
0.0043198
0.00434409
0.00436741
0.00438984
0.00441145
0.00443229
0.00445244
0.00447195
0.00449085
0.00450921
0.00452707
0.00454445
0.00456141
0.00457796
0.00459415
0.00461
0.00462553
0.00464077
0.00465574
0.00467046
0.00468495
0.00469922
0.00471329
0.00472717
0.00474087
0.00475441
0.00476779
0.00478103
0.00479412
0.00480708
0.00481992
0.00483263
0.00484523
0.00485771
0.00487007
0.00488233
0.00489448
0.00490652
0.00491846
0.00493029
0.00494201
0.00495362
0.00496512
0.00497651
0.00498779
0.00499895
0.00500999
0.00502091
0.00503171
0.00504237
0.0050529
0.0050633
0.00507355
0.00508366
0.00509362
0.00510342
0.00511307
0.00512255
0.00513186
0.00514099
0.00514994
0.00515871
0.00516729
0.00517567
0.00518385
0.00519182
0.00519957
0.00520711
0.00521441
0.00522149
0.00522833
0.00523492
0.00524126
0.00524735
0.00525317
0.00525872
0.005264
0.005269
0.00527371
0.00527812
0.00528223
0.00528604
0.00528953
0.0052927
0.00529554
0.00529805
0.00530023
0.00530205
0.00530353
0.00530464
0.00530539
0.00530577
0.00294124
0.00171036
0.001655
0.00192599
0.00221125
0.00245002
0.00264664
0.00281229
0.0029554
0.00308159
0.00319457
0.00329681
0.00339008
0.00347565
0.00355449
0.00362737
0.00369493
0.00375769
0.00381611
0.0038706
0.00392149
0.00396911
0.00401373
0.00405561
0.00409499
0.00413206
0.00416702
0.00420003
0.00423127
0.00426086
0.00428895
0.00431565
0.00434108
0.00436533
0.0043885
0.00441067
0.00443192
0.00445232
0.00447195
0.00449086
0.0045091
0.00452674
0.00454381
0.00456037
0.00457645
0.00459209
0.00460732
0.00462219
0.00463671
0.00465091
0.00466483
0.00467847
0.00469188
0.00470505
0.00471801
0.00473078
0.00474337
0.00475579
0.00476806
0.00478019
0.00479218
0.00480405
0.0048158
0.00482744
0.00483897
0.00485041
0.00486174
0.00487299
0.00488414
0.0048952
0.00490618
0.00491707
0.00492788
0.0049386
0.00494923
0.00495977
0.00497023
0.00498059
0.00499086
0.00500103
0.00501111
0.00502108
0.00503094
0.00504069
0.00505033
0.00505985
0.00506925
0.00507852
0.00508766
0.00509665
0.00510551
0.00511422
0.00512277
0.00513116
0.00513939
0.00514745
0.00515533
0.00516302
0.00517053
0.00517784
0.00518496
0.00519186
0.00519855
0.00520502
0.00521126
0.00521728
0.00522305
0.00522857
0.00523385
0.00523886
0.00524361
0.00524809
0.00525229
0.00525621
0.00525983
0.00526316
0.00526619
0.0052689
0.00527129
0.00527337
0.00527511
0.00527652
0.00527758
0.0052783
0.00527866
0.00303163
0.00176183
0.00170797
0.00198596
0.00227531
0.00251566
0.00271242
0.00287741
0.00301948
0.00314447
0.00325622
0.00335729
0.00344946
0.00353403
0.00361196
0.00368401
0.0037508
0.00381285
0.0038706
0.00392442
0.00397466
0.00402163
0.00406559
0.00410679
0.00414545
0.00418179
0.00421598
0.00424819
0.00427859
0.00430732
0.0043345
0.00436026
0.00438471
0.00440796
0.00443009
0.00445119
0.00447135
0.00449063
0.00450911
0.00452686
0.00454391
0.00456035
0.0045762
0.00459152
0.00460635
0.00462073
0.0046347
0.00464828
0.00466152
0.00467444
0.00468707
0.00469943
0.00471154
0.00472342
0.0047351
0.00474659
0.00475791
0.00476907
0.00478008
0.00479096
0.00480172
0.00481236
0.00482289
0.00483333
0.00484368
0.00485394
0.00486412
0.00487423
0.00488426
0.00489423
0.00490412
0.00491395
0.00492371
0.0049334
0.00494303
0.00495259
0.00496208
0.0049715
0.00498085
0.00499013
0.00499932
0.00500844
0.00501747
0.00502641
0.00503526
0.00504402
0.00505267
0.00506122
0.00506965
0.00507797
0.00508617
0.00509424
0.00510218
0.00510998
0.00511764
0.00512515
0.0051325
0.00513969
0.00514671
0.00515355
0.00516021
0.00516669
0.00517297
0.00517905
0.00518492
0.00519058
0.00519601
0.00520122
0.0052062
0.00521093
0.00521542
0.00521965
0.00522363
0.00522733
0.00523076
0.00523392
0.00523678
0.00523935
0.00524163
0.00524359
0.00524525
0.00524658
0.00524759
0.00524827
0.00524861
0.00311812
0.00181116
0.00175882
0.00204343
0.00233658
0.00257837
0.00277517
0.00293944
0.0030804
0.00320414
0.0033146
0.00341443
0.00350544
0.00358895
0.00366592
0.00373711
0.00380311
0.00386443
0.00392149
0.00397466
0.00402427
0.00407062
0.00411395
0.00415451
0.00419253
0.00422819
0.00426168
0.00429317
0.00432281
0.00435074
0.0043771
0.00440201
0.00442557
0.00444789
0.00446906
0.00448918
0.00450833
0.00452657
0.00454399
0.00456064
0.00457658
0.00459188
0.00460658
0.00462073
0.00463437
0.00464755
0.00466031
0.00467267
0.00468468
0.00469636
0.00470774
0.00471884
0.0047297
0.00474034
0.00475076
0.004761
0.00477107
0.00478098
0.00479075
0.0048004
0.00480993
0.00481935
0.00482868
0.00483792
0.00484709
0.00485618
0.0048652
0.00487416
0.00488307
0.00489192
0.00490071
0.00490946
0.00491816
0.00492681
0.00493542
0.00494397
0.00495248
0.00496094
0.00496934
0.00497769
0.00498599
0.00499422
0.00500239
0.0050105
0.00501853
0.00502649
0.00503437
0.00504217
0.00504988
0.00505749
0.005065
0.00507241
0.00507971
0.00508689
0.00509395
0.00510087
0.00510767
0.00511432
0.00512082
0.00512717
0.00513336
0.00513938
0.00514523
0.00515089
0.00515637
0.00516165
0.00516673
0.00517161
0.00517626
0.0051807
0.00518491
0.00518888
0.00519261
0.00519609
0.00519932
0.00520228
0.00520498
0.0052074
0.00520954
0.00521139
0.00521295
0.00521421
0.00521516
0.0052158
0.00521612
0.00320103
0.00185852
0.00180773
0.00209861
0.00239532
0.0026384
0.00283518
0.00299868
0.00313849
0.00326091
0.00337003
0.00346857
0.00355837
0.00364077
0.00371673
0.003787
0.00385218
0.00391274
0.00396911
0.00402163
0.00407062
0.00411635
0.00415909
0.00419906
0.00423646
0.0042715
0.00430435
0.00433518
0.00436413
0.00439134
0.00441695
0.00444107
0.00446382
0.00448529
0.00450559
0.00452481
0.00454302
0.0045603
0.00457672
0.00459235
0.00460726
0.00462149
0.0046351
0.00464815
0.00466067