/*--------------------------------*- C++ -*----------------------------------*\
| =========                 |                                                 |
| \\      /  F ield         | OpenFOAM: The Open Source CFD Toolbox           |
|  \\    /   O peration     | Version:  2306                                  |
|   \\  /    A nd           | Website:  www.openfoam.com                      |
|    \\/     M anipulation  |                                                 |
\*---------------------------------------------------------------------------*/
// * * * * * * * * * * * * * * * * * * * * * * * * * * * * * * * * * * * * * //
FoamFile
{
    version         2;
    format          ascii;
    class           volScalarField;
    location        "99.27";
    object          nut;
}

dimensions      [ 0 2 -1 0 0 0 0 ];

internalField   nonuniform List<scalar> 
15625
(
1.30003e-05
1.39818e-05
1.56787e-05
1.76352e-05
1.95762e-05
2.13814e-05
2.3014e-05
2.44744e-05
2.57781e-05
2.69448e-05
2.79939e-05
2.89429e-05
2.98065e-05
3.05972e-05
3.1325e-05
3.19984e-05
3.26245e-05
3.32088e-05
3.37564e-05
3.42712e-05
3.47566e-05
3.52156e-05
3.56508e-05
3.60643e-05
3.6458e-05
3.68336e-05
3.71925e-05
3.7536e-05
3.78653e-05
3.81814e-05
3.84852e-05
3.87775e-05
3.90592e-05
3.93308e-05
3.95929e-05
3.98463e-05
4.00912e-05
4.03282e-05
4.05578e-05
4.07803e-05
4.09961e-05
4.12055e-05
4.14088e-05
4.16064e-05
4.17984e-05
4.19851e-05
4.21668e-05
4.23437e-05
4.25159e-05
4.26837e-05
4.28471e-05
4.30065e-05
4.31619e-05
4.33135e-05
4.34615e-05
4.36058e-05
4.37468e-05
4.38844e-05
4.40187e-05
4.415e-05
4.42782e-05
4.44035e-05
4.45259e-05
4.46456e-05
4.47625e-05
4.48769e-05
4.49886e-05
4.50978e-05
4.52046e-05
4.5309e-05
4.54111e-05
4.55109e-05
4.56084e-05
4.57037e-05
4.57969e-05
4.58879e-05
4.59769e-05
4.60638e-05
4.61488e-05
4.62317e-05
4.63127e-05
4.63917e-05
4.64689e-05
4.65442e-05
4.66176e-05
4.66892e-05
4.67589e-05
4.68269e-05
4.68931e-05
4.69575e-05
4.70202e-05
4.70811e-05
4.71403e-05
4.71978e-05
4.72535e-05
4.73076e-05
4.73599e-05
4.74105e-05
4.74595e-05
4.75067e-05
4.75523e-05
4.75962e-05
4.76383e-05
4.76788e-05
4.77176e-05
4.77547e-05
4.779e-05
4.78237e-05
4.78556e-05
4.78858e-05
4.79142e-05
4.79409e-05
4.79657e-05
4.79889e-05
4.80102e-05
4.80296e-05
4.80473e-05
4.80631e-05
4.8077e-05
4.8089e-05
4.8099e-05
4.81071e-05
4.81133e-05
4.81174e-05
4.81195e-05
1.39818e-05
1.42278e-05
1.53317e-05
1.6786e-05
1.84871e-05
2.02493e-05
2.19392e-05
2.34977e-05
2.49105e-05
2.61849e-05
2.7336e-05
2.83804e-05
2.93334e-05
3.02083e-05
3.10162e-05
3.17665e-05
3.24666e-05
3.31231e-05
3.3741e-05
3.43247e-05
3.48781e-05
3.54042e-05
3.59056e-05
3.63847e-05
3.68435e-05
3.72838e-05
3.77069e-05
3.81144e-05
3.85073e-05
3.88867e-05
3.92536e-05
3.96088e-05
3.9953e-05
4.0287e-05
4.06113e-05
4.09265e-05
4.12331e-05
4.15316e-05
4.18223e-05
4.21058e-05
4.23823e-05
4.26522e-05
4.29157e-05
4.31731e-05
4.34248e-05
4.36709e-05
4.39116e-05
4.41472e-05
4.43779e-05
4.46037e-05
4.4825e-05
4.50418e-05
4.52542e-05
4.54625e-05
4.56667e-05
4.5867e-05
4.60634e-05
4.62561e-05
4.64452e-05
4.66306e-05
4.68127e-05
4.69913e-05
4.71666e-05
4.73386e-05
4.75075e-05
4.76732e-05
4.78358e-05
4.79954e-05
4.81521e-05
4.83058e-05
4.84566e-05
4.86045e-05
4.87497e-05
4.88921e-05
4.90317e-05
4.91686e-05
4.93028e-05
4.94344e-05
4.95633e-05
4.96896e-05
4.98132e-05
4.99343e-05
5.00528e-05
5.01688e-05
5.02821e-05
5.0393e-05
5.05013e-05
5.06071e-05
5.07103e-05
5.08111e-05
5.09093e-05
5.1005e-05
5.10982e-05
5.11888e-05
5.1277e-05
5.13626e-05
5.14456e-05
5.15262e-05
5.16041e-05
5.16795e-05
5.17523e-05
5.18225e-05
5.18901e-05
5.19551e-05
5.20175e-05
5.20771e-05
5.21341e-05
5.21884e-05
5.224e-05
5.22888e-05
5.23348e-05
5.23781e-05
5.24184e-05
5.2456e-05
5.24906e-05
5.25222e-05
5.2551e-05
5.25766e-05
5.25993e-05
5.26188e-05
5.26353e-05
5.26485e-05
5.26585e-05
5.26652e-05
5.26686e-05
1.56787e-05
1.53317e-05
1.83234e-05
2.24742e-05
2.67759e-05
3.09439e-05
3.48316e-05
3.8369e-05
4.15481e-05
4.43956e-05
4.69509e-05
4.92551e-05
5.13454e-05
5.32536e-05
5.50066e-05
5.66263e-05
5.8131e-05
5.95357e-05
6.0853e-05
6.20931e-05
6.3265e-05
6.4376e-05
6.54325e-05
6.644e-05
6.7403e-05
6.83257e-05
6.92116e-05
7.00639e-05
7.08852e-05
7.16779e-05
7.24443e-05
7.31862e-05
7.39053e-05
7.46032e-05
7.52812e-05
7.59406e-05
7.65825e-05
7.72078e-05
7.78176e-05
7.84127e-05
7.89937e-05
7.95615e-05
8.01166e-05
8.06596e-05
8.11911e-05
8.17116e-05
8.22214e-05
8.27211e-05
8.32111e-05
8.36915e-05
8.41629e-05
8.46254e-05
8.50795e-05
8.55252e-05
8.5963e-05
8.63929e-05
8.68152e-05
8.72301e-05
8.76378e-05
8.80384e-05
8.84321e-05
8.88191e-05
8.91994e-05
8.95731e-05
8.99405e-05
9.03015e-05
9.06564e-05
9.10051e-05
9.13478e-05
9.16845e-05
9.20153e-05
9.23403e-05
9.26595e-05
9.29729e-05
9.32807e-05
9.35829e-05
9.38794e-05
9.41704e-05
9.44559e-05
9.47359e-05
9.50103e-05
9.52793e-05
9.55428e-05
9.58009e-05
9.60536e-05
9.63008e-05
9.65426e-05
9.67789e-05
9.70098e-05
9.72353e-05
9.74553e-05
9.76698e-05
9.78789e-05
9.80824e-05
9.82804e-05
9.84728e-05
9.86597e-05
9.88409e-05
9.90165e-05
9.91865e-05
9.93507e-05
9.95091e-05
9.96617e-05
9.98085e-05
9.99494e-05
0.000100084
0.000100213
0.000100336
0.000100453
0.000100563
0.000100668
0.000100766
0.000100857
0.000100942
0.000101021
0.000101093
0.000101158
0.000101216
0.000101267
0.000101312
0.000101349
0.000101379
0.000101402
0.000101417
0.000101425
1.76352e-05
1.6786e-05
2.24742e-05
3.28299e-05
4.43786e-05
5.5147e-05
6.46388e-05
7.28681e-05
7.99822e-05
8.61516e-05
9.15345e-05
9.62667e-05
0.00010046
0.000104205
0.000107574
0.000110628
0.000113412
0.000115967
0.000118324
0.000120509
0.000122544
0.000124448
0.000126236
0.000127921
0.000129515
0.000131028
0.000132466
0.000133839
0.000135151
0.000136409
0.000137618
0.000138781
0.000139902
0.000140985
0.000142033
0.000143048
0.000144033
0.000144989
0.00014592
0.000146825
0.000147708
0.000148569
0.000149409
0.00015023
0.000151033
0.000151819
0.000152588
0.000153342
0.00015408
0.000154804
0.000155515
0.000156212
0.000156897
0.000157569
0.00015823
0.000158879
0.000159517
0.000160144
0.000160761
0.000161367
0.000161964
0.00016255
0.000163127
0.000163695
0.000164253
0.000164803
0.000165343
0.000165875
0.000166398
0.000166912
0.000167418
0.000167915
0.000168404
0.000168884
0.000169357
0.000169821
0.000170277
0.000170725
0.000171165
0.000171596
0.00017202
0.000172435
0.000172843
0.000173242
0.000173634
0.000174017
0.000174392
0.000174759
0.000175118
0.000175468
0.000175811
0.000176145
0.00017647
0.000176788
0.000177097
0.000177397
0.000177689
0.000177973
0.000178247
0.000178513
0.000178771
0.000179019
0.000179258
0.000179489
0.00017971
0.000179921
0.000180124
0.000180317
0.000180501
0.000180674
0.000180838
0.000180993
0.000181137
0.000181271
0.000181394
0.000181508
0.00018161
0.000181702
0.000181783
0.000181853
0.000181912
0.000181959
0.000181995
0.000182019
0.000182031
1.95762e-05
1.84871e-05
2.67759e-05
4.43786e-05
6.60408e-05
8.67203e-05
0.000104687
0.000119883
0.00013269
0.000143534
0.000152783
0.000160737
0.000167636
0.000173669
0.000178985
0.000183705
0.000187923
0.000191717
0.000195151
0.000198277
0.000201137
0.000203766
0.000206196
0.000208451
0.000210552
0.000212519
0.000214365
0.000216106
0.000217752
0.000219314
0.0002208
0.000222218
0.000223575
0.000224876
0.000226127
0.000227332
0.000228495
0.000229621
0.000230711
0.000231769
0.000232798
0.000233799
0.000234775
0.000235728
0.000236658
0.000237568
0.000238459
0.000239332
0.000240188
0.000241028
0.000241852
0.000242662
0.000243459
0.000244242
0.000245012
0.000245771
0.000246518
0.000247253
0.000247977
0.000248691
0.000249395
0.000250088
0.000250772
0.000251446
0.00025211
0.000252765
0.000253411
0.000254047
0.000254675
0.000255293
0.000255903
0.000256503
0.000257095
0.000257678
0.000258252
0.000258817
0.000259374
0.000259922
0.00026046
0.00026099
0.000261511
0.000262023
0.000262526
0.00026302
0.000263505
0.00026398
0.000264446
0.000264903
0.00026535
0.000265788
0.000266216
0.000266635
0.000267043
0.000267442
0.00026783
0.000268209
0.000268577
0.000268935
0.000269282
0.000269618
0.000269944
0.000270259
0.000270562
0.000270855
0.000271136
0.000271406
0.000271663
0.00027191
0.000272144
0.000272365
0.000272575
0.000272772
0.000272956
0.000273128
0.000273286
0.000273431
0.000273563
0.00027368
0.000273784
0.000273874
0.00027395
0.00027401
0.000274056
0.000274087
0.000274103
2.13814e-05
2.02493e-05
3.09439e-05
5.5147e-05
8.67203e-05
0.000117913
0.000145409
0.000168744
0.000188369
0.000204898
0.000218893
0.000230821
0.000241057
0.0002499
0.000257592
0.000264323
0.000270248
0.000275494
0.000280163
0.00028434
0.000288097
0.00029149
0.000294571
0.00029738
0.000299952
0.000302319
0.000304504
0.000306531
0.000308419
0.000310183
0.000311839
0.000313397
0.000314871
0.000316267
0.000317596
0.000318864
0.000320078
0.000321242
0.000322363
0.000323445
0.00032449
0.000325504
0.000326489
0.000327447
0.000328381
0.000329293
0.000330185
0.000331059
0.000331916
0.000332757
0.000333584
0.000334398
0.000335198
0.000335988
0.000336766
0.000337534
0.000338292
0.00033904
0.00033978
0.00034051
0.000341233
0.000341947
0.000342654
0.000343353
0.000344044
0.000344728
0.000345404
0.000346073
0.000346735
0.000347389
0.000348036
0.000348676
0.000349308
0.000349933
0.00035055
0.000351159
0.000351761
0.000352355
0.000352942
0.00035352
0.00035409
0.000354651
0.000355205
0.000355749
0.000356285
0.000356812
0.00035733
0.000357839
0.000358338
0.000358828
0.000359308
0.000359778
0.000360238
0.000360687
0.000361126
0.000361555
0.000361972
0.000362379
0.000362774
0.000363157
0.000363529
0.000363889
0.000364236
0.000364571
0.000364894
0.000365204
0.0003655
0.000365784
0.000366054
0.00036631
0.000366552
0.000366779
0.000366993
0.000367191
0.000367375
0.000367543
0.000367695
0.000367832
0.000367953
0.000368057
0.000368145
0.000368215
0.000368269
0.000368305
0.000368323
2.3014e-05
2.19392e-05
3.48316e-05
6.46388e-05
0.000104687
0.000145409
0.000182139
0.000213821
0.000240759
0.000263605
0.000283026
0.0002996
0.000313812
0.000326058
0.000336659
0.000345879
0.000353932
0.000360996
0.000367217
0.000372718
0.000377599
0.000381948
0.000385835
0.000389324
0.000392466
0.000395305
0.000397881
0.000400227
0.000402371
0.000404337
0.000406148
0.000407823
0.000409377
0.000410825
0.000412179
0.000413451
0.000414651
0.000415786
0.000416864
0.000417891
0.000418875
0.000419819
0.000420729
0.000421607
0.000422459
0.000423287
0.000424093
0.000424881
0.000425652
0.000426408
0.000427152
0.000427883
0.000428604
0.000429316
0.00043002
0.000430716
0.000431405
0.000432088
0.000432766
0.000433438
0.000434106
0.000434768
0.000435427
0.000436081
0.000436732
0.000437378
0.00043802
0.000438658
0.000439293
0.000439923
0.000440549
0.000441171
0.000441788
0.000442401
0.000443009
0.000443612
0.000444211
0.000444803
0.000445391
0.000445972
0.000446548
0.000447117
0.00044768
0.000448236
0.000448785
0.000449326
0.00044986
0.000450386
0.000450904
0.000451414
0.000451915
0.000452407
0.000452889
0.000453362
0.000453825
0.000454278
0.00045472
0.000455152
0.000455572
0.000455981
0.000456378
0.000456763
0.000457136
0.000457496
0.000457844
0.000458177
0.000458498
0.000458804
0.000459096
0.000459373
0.000459636
0.000459883
0.000460115
0.000460331
0.000460531
0.000460714
0.000460881
0.00046103
0.000461162
0.000461276
0.000461372
0.000461449
0.000461508
0.000461547
0.000461567
2.44744e-05
2.34977e-05
3.8369e-05
7.28681e-05
0.000119883
0.000168744
0.000213821
0.000253464
0.0002877
0.000317096
0.000342322
0.000364007
0.000382698
0.000398857
0.00041287
0.000425059
0.000435691
0.000444992
0.000453148
0.000460319
0.000466639
0.000472221
0.000477163
0.000481549
0.000485448
0.000488924
0.000492029
0.00049481
0.000497307
0.000499554
0.000501582
0.000503418
0.000505086
0.000506605
0.000507994
0.000509269
0.000510444
0.00051153
0.00051254
0.000513483
0.000514367
0.000515199
0.000515987
0.000516737
0.000517452
0.00051814
0.000518802
0.000519443
0.000520066
0.000520674
0.000521269
0.000521854
0.00052243
0.000522999
0.000523562
0.00052412
0.000524675
0.000525228
0.000525779
0.000526328
0.000526877
0.000527425
0.000527974
0.000528523
0.000529072
0.000529622
0.000530172
0.000530723
0.000531274
0.000531826
0.000532377
0.000532929
0.000533481
0.000534032
0.000534582
0.000535132
0.00053568
0.000536226
0.000536771
0.000537313
0.000537853
0.000538389
0.000538923
0.000539452
0.000539977
0.000540498
0.000541014
0.000541524
0.000542029
0.000542527
0.000543019
0.000543503
0.000543981
0.00054445
0.000544911
0.000545363
0.000545807
0.00054624
0.000546664
0.000547077
0.000547479
0.000547871
0.00054825
0.000548618
0.000548972
0.000549315
0.000549643
0.000549958
0.000550259
0.000550545
0.000550817
0.000551073
0.000551313
0.000551537
0.000551745
0.000551935
0.000552108
0.000552264
0.000552401
0.00055252
0.00055262
0.000552701
0.000552762
0.000552803
0.000552824
2.57781e-05
2.49105e-05
4.15481e-05
7.99822e-05
0.00013269
0.000188369
0.000240759
0.0002877
0.000328904
0.000364771
0.000395908
0.000422935
0.000446418
0.000466855
0.000484673
0.000500233
0.000513847
0.000525775
0.000536242
0.000545439
0.00055353
0.000560656
0.000566937
0.00057248
0.000577375
0.000581701
0.000585528
0.000588915
0.000591915
0.000594575
0.000596935
0.000599031
0.000600895
0.000602555
0.000604035
0.000605357
0.000606541
0.000607603
0.000608559
0.000609422
0.000610205
0.000610918
0.00061157
0.000612169
0.000612724
0.000613241
0.000613726
0.000614184
0.000614619
0.000615036
0.000615438
0.000615829
0.000616211
0.000616586
0.000616957
0.000617326
0.000617693
0.000618062
0.000618431
0.000618804
0.00061918
0.000619559
0.000619944
0.000620333
0.000620728
0.000621128
0.000621534
0.000621945
0.000622362
0.000622785
0.000623212
0.000623645
0.000624083
0.000624525
0.000624972
0.000625422
0.000625876
0.000626334
0.000626793
0.000627255
0.000627719
0.000628184
0.000628649
0.000629115
0.000629581
0.000630045
0.000630509
0.00063097
0.000631429
0.000631885
0.000632338
0.000632786
0.00063323
0.000633669
0.000634102
0.000634529
0.000634948
0.000635361
0.000635765
0.000636161
0.000636548
0.000636926
0.000637293
0.00063765
0.000637996
0.00063833
0.000638651
0.000638961
0.000639256
0.000639539
0.000639807
0.00064006
0.000640298
0.00064052
0.000640727
0.000640916
0.000641089
0.000641244
0.000641381
0.0006415
0.0006416
0.000641681
0.000641742
0.000641783
0.000641804
2.69448e-05
2.61849e-05
4.43956e-05
8.61516e-05
0.000143534
0.000204898
0.000263605
0.000317096
0.000364771
0.000406836
0.000443787
0.000476195
0.000504611
0.00052954
0.000551425
0.000570655
0.000587566
0.000602448
0.000615553
0.000627099
0.000637275
0.000646245
0.000654153
0.000661124
0.000667268
0.00067268
0.000677445
0.000681638
0.000685325
0.000688564
0.000691406
0.000693896
0.000696077
0.000697982
0.000699645
0.000701094
0.000702355
0.00070345
0.000704399
0.00070522
0.000705931
0.000706544
0.000707073
0.00070753
0.000707925
0.000708266
0.000708563
0.000708822
0.000709049
0.000709252
0.000709434
0.0007096
0.000709755
0.000709901
0.000710043
0.000710182
0.000710321
0.000710462
0.000710608
0.000710758
0.000710916
0.000711081
0.000711254
0.000711438
0.000711631
0.000711834
0.000712049
0.000712274
0.00071251
0.000712757
0.000713014
0.000713283
0.000713562
0.000713851
0.00071415
0.000714459
0.000714776
0.000715102
0.000715436
0.000715778
0.000716126
0.000716481
0.000716842
0.000717207
0.000717578
0.000717952
0.000718329
0.000718709
0.00071909
0.000719473
0.000719856
0.000720239
0.000720622
0.000721002
0.000721381
0.000721756
0.000722128
0.000722496
0.000722858
0.000723215
0.000723566
0.000723909
0.000724245
0.000724573
0.000724892
0.000725201
0.0007255
0.000725788
0.000726065
0.000726329
0.000726581
0.00072682
0.000727045
0.000727256
0.000727452
0.000727632
0.000727797
0.000727944
0.000728076
0.000728189
0.000728285
0.000728362
0.000728421
0.00072846
0.00072848
2.79939e-05
2.7336e-05
4.69509e-05
9.15345e-05
0.000152783
0.000218893
0.000283026
0.000342322
0.000395908
0.000443787
0.000486325
0.000524014
0.000557368
0.000586872
0.000612971
0.000636062
0.000656496
0.00067458
0.000690585
0.000704751
0.000717284
0.00072837
0.00073817
0.000746826
0.000754465
0.000761199
0.000767127
0.000772337
0.000776908
0.000780908
0.000784401
0.000787443
0.000790082
0.000792363
0.000794327
0.000796009
0.00079744
0.000798651
0.000799666
0.000800509
0.000801202
0.000801761
0.000802205
0.000802548
0.000802805
0.000802987
0.000803105
0.000803169
0.000803189
0.000803171
0.000803123
0.000803051
0.000802961
0.000802858
0.000802746
0.000802629
0.00080251
0.000802393
0.000802281
0.000802175
0.000802077
0.00080199
0.000801915
0.000801852
0.000801804
0.00080177
0.000801751
0.000801748
0.000801761
0.000801791
0.000801837
0.0008019
0.000801978
0.000802073
0.000802183
0.000802309
0.00080245
0.000802605
0.000802775
0.000802957
0.000803153
0.00080336
0.000803579
0.000803809
0.000804049
0.000804298
0.000804556
0.000804821
0.000805094
0.000805372
0.000805656
0.000805944
0.000806236
0.000806532
0.000806829
0.000807127
0.000807426
0.000807724
0.000808022
0.000808317
0.00080861
0.000808899
0.000809184
0.000809463
0.000809737
0.000810004
0.000810264
0.000810516
0.000810758
0.000810992
0.000811215
0.000811427
0.000811628
0.000811816
0.000811992
0.000812154
0.000812302
0.000812436
0.000812555
0.000812658
0.000812745
0.000812815
0.000812868
0.000812904
0.000812922
2.89429e-05
2.83804e-05
4.92551e-05
9.62667e-05
0.000160737
0.000230821
0.0002996
0.000364007
0.000422935
0.000476195
0.000524014
0.000566794
0.000604989
0.000639052
0.000669414
0.000696467
0.000720564
0.000742022
0.000761124
0.00077812
0.000793234
0.000806664
0.000818587
0.000829159
0.000838522
0.0008468
0.000854105
0.000860539
0.00086619
0.000871141
0.000875462
0.00087922
0.000882474
0.000885276
0.000887674
0.000889711
0.000891427
0.000892856
0.00089403
0.000894978
0.000895726
0.000896297
0.000896713
0.000896993
0.000897153
0.000897211
0.000897179
0.000897071
0.000896898
0.000896671
0.000896398
0.00089609
0.000895752
0.000895392
0.000895015
0.000894628
0.000894235
0.00089384
0.000893447
0.00089306
0.00089268
0.000892312
0.000891957
0.000891617
0.000891293
0.000890988
0.000890701
0.000890434
0.000890188
0.000889964
0.000889761
0.000889579
0.000889419
0.000889282
0.000889166
0.000889071
0.000888998
0.000888945
0.000888912
0.000888899
0.000888905
0.00088893
0.000888972
0.000889031
0.000889107
0.000889197
0.000889302
0.000889421
0.000889553
0.000889696
0.000889851
0.000890015
0.000890189
0.000890371
0.00089056
0.000890755
0.000890956
0.000891161
0.00089137
0.000891581
0.000891794
0.000892007
0.00089222
0.000892433
0.000892643
0.00089285
0.000893054
0.000893253
0.000893447
0.000893635
0.000893816
0.000893989
0.000894153
0.000894309
0.000894454
0.000894589
0.000894713
0.000894825
0.000894925
0.000895012
0.000895085
0.000895145
0.00089519
0.000895221
0.000895236
2.98065e-05
2.93334e-05
5.13454e-05
0.00010046
0.000167636
0.000241057
0.000313812
0.000382698
0.000446418
0.000504611
0.000557368
0.000604989
0.000647861
0.000686395
0.000720993
0.000752032
0.000779862
0.000804798
0.000827129
0.000847111
0.000864977
0.000880935
0.000895173
0.000907859
0.000919144
0.000929166
0.000938047
0.000945898
0.000952819
0.000958902
0.000964227
0.00096887
0.000972898
0.000976371
0.000979346
0.000981872
0.000983996
0.000985759
0.000987198
0.000988349
0.000989242
0.000989906
0.000990367
0.000990648
0.00099077
0.000990754
0.000990616
0.000990374
0.00099004
0.00098963
0.000989154
0.000988623
0.000988048
0.000987437
0.000986798
0.000986139
0.000985465
0.000984783
0.000984098
0.000983414
0.000982736
0.000982067
0.00098141
0.000980768
0.000980144
0.000979539
0.000978956
0.000978396
0.00097786
0.000977349
0.000976864
0.000976405
0.000975974
0.00097557
0.000975193
0.000974843
0.00097452
0.000974225
0.000973956
0.000973713
0.000973495
0.000973302
0.000973134
0.000972989
0.000972867
0.000972767
0.000972687
0.000972628
0.000972588
0.000972567
0.000972562
0.000972574
0.000972601
0.000972642
0.000972696
0.000972762
0.000972839
0.000972927
0.000973023
0.000973127
0.000973238
0.000973354
0.000973476
0.000973601
0.000973729
0.000973858
0.000973989
0.000974119
0.000974249
0.000974376
0.000974501
0.000974622
0.000974739
0.00097485
0.000974955
0.000975054
0.000975145
0.000975228
0.000975302
0.000975367
0.000975422
0.000975467
0.000975501
0.000975524
0.000975536
3.05972e-05
3.02083e-05
5.32536e-05
0.000104205
0.000173669
0.0002499
0.000326058
0.000398857
0.000466855
0.00052954
0.000586872
0.000639052
0.000686395
0.000729258
0.000768009
0.000803003
0.000834576
0.000863039
0.000888676
0.000911747
0.000932488
0.000951114
0.00096782
0.000982781
0.000996158
0.0010081
0.00101873
0.00102817
0.00103653
0.00104392
0.00105042
0.00105611
0.00106107
0.00106536
0.00106906
0.00107221
0.00107487
0.00107709
0.00107891
0.00108037
0.00108151
0.00108236
0.00108295
0.00108331
0.00108346
0.00108344
0.00108325
0.00108293
0.00108248
0.00108192
0.00108127
0.00108055
0.00107976
0.00107892
0.00107803
0.00107711
0.00107616
0.00107519
0.00107421
0.00107323
0.00107224
0.00107126
0.00107029
0.00106933
0.00106839
0.00106746
0.00106656
0.00106568
0.00106483
0.00106401
0.00106322
0.00106245
0.00106172
0.00106102
0.00106035
0.00105971
0.00105911
0.00105854
0.001058
0.0010575
0.00105702
0.00105658
0.00105617
0.00105579
0.00105544
0.00105512
0.00105482
0.00105456
0.00105431
0.0010541
0.00105391
0.00105374
0.00105359
0.00105346
0.00105335
0.00105327
0.00105319
0.00105314
0.0010531
0.00105307
0.00105306
0.00105306
0.00105307
0.00105308
0.00105311
0.00105315
0.00105319
0.00105323
0.00105328
0.00105333
0.00105339
0.00105344
0.0010535
0.00105355
0.00105361
0.00105366
0.00105371
0.00105376
0.0010538
0.00105384
0.00105387
0.00105389
0.00105391
0.00105393
0.00105394
3.1325e-05
3.10162e-05
5.50066e-05
0.000107574
0.000178985
0.000257592
0.000336659
0.00041287
0.000484673
0.000551425
0.000612971
0.000669414
0.000720993
0.000768009
0.00081079
0.000849663
0.000884945
0.000916934
0.000945909
0.000972127
0.000995825
0.00101722
0.00103651
0.00105387
0.00106948
0.00108347
0.001096
0.00110719
0.00111715
0.001126
0.00113382
0.00114071
0.00114675
0.00115201
0.00115657
0.00116048
0.00116381
0.00116661
0.00116893
0.00117082
0.00117231
0.00117344
0.00117425
0.00117478
0.00117505
0.00117509
0.00117492
0.00117457
0.00117406
0.00117341
0.00117264
0.00117176
0.00117079
0.00116975
0.00116863
0.00116747
0.00116626
0.00116502
0.00116375
0.00116247
0.00116118
0.00115988
0.00115859
0.00115731
0.00115604
0.00115478
0.00115355
0.00115233
0.00115115
0.00114999
0.00114887
0.00114778
0.00114672
0.0011457
0.00114471
0.00114376
0.00114285
0.00114198
0.00114114
0.00114034
0.00113959
0.00113887
0.00113818
0.00113754
0.00113693
0.00113635
0.00113581
0.00113531
0.00113484
0.0011344
0.00113399
0.00113361
0.00113326
0.00113294
0.00113265
0.00113238
0.00113213
0.00113191
0.00113171
0.00113153
0.00113137
0.00113123
0.0011311
0.001131
0.0011309
0.00113082
0.00113075
0.0011307
0.00113065
0.00113061
0.00113058
0.00113056
0.00113054
0.00113053
0.00113053
0.00113052
0.00113052
0.00113052
0.00113053
0.00113053
0.00113053
0.00113054
0.00113054
0.00113054
0.00113054
3.19984e-05
3.17665e-05
5.66263e-05
0.000110628
0.000183705
0.000264323
0.000345879
0.000425059
0.000500233
0.000570655
0.000636062
0.000696467
0.000752032
0.000803003
0.000849663
0.000892306
0.000931227
0.000966707
0.000999015
0.0010284
0.0010551
0.00107932
0.00110127
0.00112113
0.00113908
0.00115525
0.0011698
0.00118287
0.00119456
0.001205
0.00121428
0.00122251
0.00122977
0.00123614
0.00124169
0.0012465
0.00125062
0.00125413
0.00125707
0.00125949
0.00126144
0.00126296
0.00126409
0.00126488
0.00126535
0.00126553
0.00126546
0.00126516
0.00126466
0.00126397
0.00126313
0.00126214
0.00126104
0.00125983
0.00125852
0.00125714
0.0012557
0.00125421
0.00125267
0.00125111
0.00124952
0.00124791
0.0012463
0.00124469
0.00124309
0.0012415
0.00123992
0.00123837
0.00123684
0.00123533
0.00123386
0.00123242
0.00123102
0.00122965
0.00122833
0.00122704
0.0012258
0.0012246
0.00122344
0.00122233
0.00122126
0.00122023
0.00121925
0.00121831
0.00121741
0.00121656
0.00121575
0.00121498
0.00121425
0.00121356
0.00121291
0.00121229
0.00121172
0.00121118
0.00121067
0.00121019
0.00120975
0.00120934
0.00120896
0.0012086
0.00120827
0.00120797
0.00120769
0.00120744
0.0012072
0.00120699
0.0012068
0.00120662
0.00120646
0.00120632
0.00120619
0.00120608
0.00120597
0.00120588
0.00120581
0.00120574
0.00120568
0.00120562
0.00120558
0.00120554
0.00120551
0.00120549
0.00120547
0.00120546
0.00120546
3.26245e-05
3.24666e-05
5.8131e-05
0.000113412
0.000187923
0.000270248
0.000353932
0.000435691
0.000513847
0.000587566
0.000656496
0.000720564
0.000779862
0.000834576
0.000884945
0.000931227
0.00097369
0.0010126
0.0010482
0.00108075
0.00111046
0.00113754
0.00116221
0.00118463
0.00120499
0.00122343
0.0012401
0.00125515
0.00126869
0.00128084
0.00129171
0.0013014
0.00131
0.00131759
0.00132427
0.00133009
0.00133514
0.00133946
0.00134314
0.00134621
0.00134872
0.00135074
0.0013523
0.00135344
0.0013542
0.00135461
0.00135472
0.00135454
0.00135411
0.00135346
0.00135261
0.00135157
0.00135038
0.00134905
0.0013476
0.00134605
0.0013444
0.00134269
0.00134091
0.00133908
0.00133721
0.00133531
0.00133339
0.00133147
0.00132954
0.00132761
0.00132569
0.00132378
0.0013219
0.00132004
0.00131821
0.00131641
0.00131465
0.00131293
0.00131125
0.00130961
0.00130801
0.00130646
0.00130496
0.00130351
0.0013021
0.00130075
0.00129944
0.00129818
0.00129698
0.00129582
0.00129471
0.00129365
0.00129264
0.00129167
0.00129075
0.00128988
0.00128905
0.00128826
0.00128751
0.00128681
0.00128614
0.00128552
0.00128493
0.00128438
0.00128386
0.00128338
0.00128292
0.0012825
0.00128211
0.00128175
0.00128141
0.0012811
0.00128081
0.00128055
0.00128031
0.00128009
0.00127989
0.00127971
0.00127954
0.0012794
0.00127927
0.00127916
0.00127906
0.00127898
0.00127891
0.00127886
0.00127881
0.00127879
0.00127877
3.32088e-05
3.31231e-05
5.95357e-05
0.000115967
0.000191717
0.000275494
0.000360996
0.000444992
0.000525775
0.000602448
0.00067458
0.000742022
0.000804798
0.000863039
0.000916934
0.000966707
0.0010126
0.00105484
0.00109369
0.00112935
0.00116206
0.00119202
0.00121943
0.00124445
0.00126727
0.00128805
0.00130692
0.00132403
0.00133951
0.00135347
0.00136603
0.00137729
0.00138734
0.00139628
0.00140419
0.00141114
0.00141722
0.00142248
0.001427
0.00143083
0.00143402
0.00143663
0.00143871
0.0014403
0.00144145
0.00144218
0.00144255
0.00144258
0.0014423
0.00144175
0.00144095
0.00143993
0.00143871
0.00143732
0.00143577
0.00143408
0.00143228
0.00143037
0.00142838
0.00142632
0.0014242
0.00142203
0.00141982
0.00141759
0.00141534
0.00141308
0.00141083
0.00140858
0.00140634
0.00140413
0.00140193
0.00139977
0.00139764
0.00139555
0.0013935
0.00139149
0.00138953
0.00138761
0.00138575
0.00138394
0.00138218
0.00138047
0.00137882
0.00137722
0.00137568
0.00137419
0.00137276
0.00137139
0.00137007
0.0013688
0.00136759
0.00136643
0.00136532
0.00136427
0.00136326
0.00136231
0.0013614
0.00136053
0.00135972
0.00135895
0.00135822
0.00135753
0.00135688
0.00135628
0.00135571
0.00135517
0.00135468
0.00135421
0.00135378
0.00135338
0.00135302
0.00135268
0.00135237
0.00135208
0.00135183
0.0013516
0.00135139
0.00135121
0.00135105
0.00135092
0.0013508
0.00135071
0.00135065
0.0013506
0.00135058
3.37564e-05
3.3741e-05
6.0853e-05
0.000118324
0.000195151
0.000280163
0.000367217
0.000453148
0.000536242
0.000615553
0.000690585
0.000761124
0.000827129
0.000888676
0.000945909
0.000999015
0.0010482
0.00109369
0.00113569
0.00117443
0.0012101
0.00124292
0.00127306
0.00130071
0.00132603
0.00134918
0.00137031
0.00138955
0.00140704
0.00142289
0.00143723
0.00145014
0.00146175
0.00147212
0.00148137
0.00148956
0.00149677
0.00150307
0.00150854
0.00151322
0.0015172
0.0015205
0.0015232
0.00152534
0.00152696
0.0015281
0.00152881
0.00152913
0.00152908
0.00152871
0.00152804
0.0015271
0.00152591
0.00152451
0.00152292
0.00152115
0.00151924
0.00151719
0.00151502
0.00151276
0.00151041
0.001508
0.00150553
0.00150301
0.00150047
0.0014979
0.00149531
0.00149273
0.00149015
0.00148757
0.00148502
0.00148249
0.00147999
0.00147752
0.00147509
0.00147271
0.00147037
0.00146808
0.00146584
0.00146365
0.00146152
0.00145944
0.00145743
0.00145547
0.00145358
0.00145174
0.00144997
0.00144826
0.00144661
0.00144502
0.0014435
0.00144203
0.00144062
0.00143928
0.00143799
0.00143675
0.00143558
0.00143446
0.00143339
0.00143238
0.00143142
0.00143051
0.00142965
0.00142884
0.00142808
0.00142736
0.00142668
0.00142605
0.00142546
0.00142491
0.0014244
0.00142393
0.0014235
0.0014231
0.00142274
0.00142241
0.00142212
0.00142186
0.00142163
0.00142144
0.00142128
0.00142115
0.00142105
0.00142099
0.00142096
3.42712e-05
3.43247e-05
6.20931e-05
0.000120509
0.000198277
0.00028434
0.000372718
0.000460319
0.000545439
0.000627099
0.000704751
0.00077812
0.000847111
0.000911747
0.000972127
0.0010284
0.00108075
0.00112935
0.00117443
0.00121616
0.00125475
0.00129039
0.00132326
0.00135353
0.00138136
0.00140691
0.00143033
0.00145175
0.00147131
0.00148912
0.0015053
0.00151995
0.00153318
0.00154509
0.00155575
0.00156527
0.00157371
0.00158115
0.00158766
0.0015933
0.00159814
0.00160224
0.00160565
0.00160843
0.00161061
0.00161225
0.0016134
0.00161408
0.00161435
0.00161422
0.00161375
0.00161296
0.00161188
0.00161053
0.00160895
0.00160716
0.00160518
0.00160304
0.00160074
0.00159832
0.00159579
0.00159316
0.00159046
0.00158769
0.00158487
0.001582
0.00157911
0.0015762
0.00157329
0.00157037
0.00156746
0.00156457
0.0015617
0.00155885
0.00155604
0.00155328
0.00155055
0.00154787
0.00154525
0.00154267
0.00154016
0.0015377
0.00153531
0.00153298
0.00153071
0.00152851
0.00152638
0.00152431
0.00152232
0.00152039
0.00151852
0.00151673
0.001515
0.00151334
0.00151175
0.00151022
0.00150876
0.00150736
0.00150603
0.00150476
0.00150354
0.00150239
0.0015013
0.00150027
0.00149929
0.00149836
0.00149749
0.00149668
0.00149591
0.0014952
0.00149453
0.00149392
0.00149335
0.00149282
0.00149235
0.00149192
0.00149153
0.00149118
0.00149088
0.00149063
0.00149041
0.00149024
0.00149011
0.00149002
0.00148998
3.47566e-05
3.48781e-05
6.3265e-05
0.000122544
0.000201137
0.000288097
0.000377599
0.000466639
0.00055353
0.000637275
0.000717284
0.000793234