/*--------------------------------*- C++ -*----------------------------------*\
| =========                 |                                                 |
| \\      /  F ield         | OpenFOAM: The Open Source CFD Toolbox           |
|  \\    /   O peration     | Version:  2306                                  |
|   \\  /    A nd           | Website:  www.openfoam.com                      |
|    \\/     M anipulation  |                                                 |
\*---------------------------------------------------------------------------*/
// * * * * * * * * * * * * * * * * * * * * * * * * * * * * * * * * * * * * * //
FoamFile
{
    version         2;
    format          ascii;
    class           volScalarField;
    location        "99.27";
    object          p;
}

dimensions      [ 0 2 -2 0 0 0 0 ];

internalField   nonuniform List<scalar> 
15625
(
1.32572e-16
3.0258e-16
3.38677e-16
3.46375e-16
3.51989e-16
3.55857e-16
3.58329e-16
3.60146e-16
3.61624e-16
3.62923e-16
3.64082e-16
3.6514e-16
3.66125e-16
3.6704e-16
3.67897e-16
3.68756e-16
3.69546e-16
3.70337e-16
3.71091e-16
3.71828e-16
3.72552e-16
3.73276e-16
3.7399e-16
3.7472e-16
3.75408e-16
3.76086e-16
3.76759e-16
3.77433e-16
3.78101e-16
3.78726e-16
3.79387e-16
3.80034e-16
3.80687e-16
3.8133e-16
3.81994e-16
3.826e-16
3.83208e-16
3.83849e-16
3.84458e-16
3.85058e-16
3.85707e-16
3.86359e-16
3.86993e-16
3.87643e-16
3.88302e-16
3.88939e-16
3.89586e-16
3.90224e-16
3.90888e-16
3.91579e-16
3.92249e-16
3.92868e-16
3.93509e-16
3.94174e-16
3.94837e-16
3.95505e-16
3.96125e-16
3.96738e-16
3.97329e-16
3.9791e-16
3.98509e-16
3.99087e-16
3.99656e-16
4.0018e-16
4.00687e-16
4.01197e-16
4.017e-16
4.02188e-16
4.0262e-16
4.0304e-16
4.03404e-16
4.03786e-16
4.04163e-16
4.04498e-16
4.04887e-16
4.0529e-16
4.05627e-16
4.05975e-16
4.06253e-16
4.06581e-16
4.06949e-16
4.07273e-16
4.07595e-16
4.07875e-16
4.08129e-16
4.08369e-16
4.08681e-16
4.08918e-16
4.09132e-16
4.09323e-16
4.09501e-16
4.09741e-16
4.09964e-16
4.10168e-16
4.10406e-16
4.10764e-16
4.1091e-16
4.11048e-16
4.11256e-16
4.1147e-16
4.11613e-16
4.11814e-16
4.11909e-16
4.11977e-16
4.12089e-16
4.12198e-16
4.12287e-16
4.12394e-16
4.12458e-16
4.12586e-16
4.12637e-16
4.12783e-16
4.12857e-16
4.12878e-16
4.12959e-16
4.13044e-16
4.13187e-16
4.1331e-16
4.13312e-16
4.13343e-16
4.13357e-16
4.13364e-16
4.13344e-16
4.13379e-16
4.13294e-16
3.0258e-16
3.32655e-16
3.43094e-16
3.47695e-16
3.51901e-16
3.55248e-16
3.5772e-16
3.59647e-16
3.61212e-16
3.62608e-16
3.63843e-16
3.64937e-16
3.65956e-16
3.66904e-16
3.67802e-16
3.68653e-16
3.69466e-16
3.70272e-16
3.7108e-16
3.718e-16
3.72526e-16
3.73234e-16
3.73937e-16
3.7464e-16
3.75361e-16
3.76067e-16
3.76746e-16
3.77413e-16
3.78104e-16
3.78731e-16
3.79377e-16
3.8002e-16
3.80663e-16
3.81313e-16
3.81975e-16
3.8259e-16
3.83216e-16
3.83863e-16
3.84446e-16
3.85028e-16
3.85687e-16
3.86346e-16
3.86979e-16
3.87636e-16
3.88306e-16
3.88962e-16
3.89588e-16
3.90252e-16
3.90914e-16
3.91586e-16
3.92237e-16
3.9285e-16
3.93518e-16
3.94193e-16
3.94843e-16
3.95479e-16
3.96109e-16
3.96737e-16
3.97322e-16
3.97915e-16
3.98502e-16
3.99066e-16
3.99632e-16
4.00183e-16
4.00686e-16
4.01207e-16
4.01691e-16
4.02202e-16
4.026e-16
4.03022e-16
4.03401e-16
4.03802e-16
4.04191e-16
4.0451e-16
4.04901e-16
4.05329e-16
4.05635e-16
4.05993e-16
4.06275e-16
4.06598e-16
4.06957e-16
4.07257e-16
4.07612e-16
4.0787e-16
4.0815e-16
4.08423e-16
4.08683e-16
4.08912e-16
4.09123e-16
4.09316e-16
4.09477e-16
4.09734e-16
4.09959e-16
4.10154e-16
4.10421e-16
4.10725e-16
4.10858e-16
4.11047e-16
4.11236e-16
4.11482e-16
4.11601e-16
4.11812e-16
4.11915e-16
4.11937e-16
4.12075e-16
4.12216e-16
4.12261e-16
4.12413e-16
4.12505e-16
4.12602e-16
4.12645e-16
4.12818e-16
4.12823e-16
4.1285e-16
4.12959e-16
4.13079e-16
4.1319e-16
4.13306e-16
4.13353e-16
4.13366e-16
4.13381e-16
4.13338e-16
4.13348e-16
4.13399e-16
4.13306e-16
3.38675e-16
3.43093e-16
3.45268e-16
3.48395e-16
3.5181e-16
3.54775e-16
3.57182e-16
3.59158e-16
3.60819e-16
3.62239e-16
3.63536e-16
3.64705e-16
3.65728e-16
3.66707e-16
3.6762e-16
3.6851e-16
3.69313e-16
3.70138e-16
3.7097e-16
3.71711e-16
3.72459e-16
3.7319e-16
3.73905e-16
3.74611e-16
3.75347e-16
3.7605e-16
3.76741e-16
3.77364e-16
3.78038e-16
3.78694e-16
3.79328e-16
3.79959e-16
3.80612e-16
3.81263e-16
3.81937e-16
3.82596e-16
3.83205e-16
3.83885e-16
3.84437e-16
3.8502e-16
3.85651e-16
3.86293e-16
3.86939e-16
3.87618e-16
3.88338e-16
3.88977e-16
3.89626e-16
3.90253e-16
3.90908e-16
3.91602e-16
3.92244e-16
3.92885e-16
3.93556e-16
3.94193e-16
3.94825e-16
3.9551e-16
3.96102e-16
3.96747e-16
3.97391e-16
3.97967e-16
3.98526e-16
3.99124e-16
3.99667e-16
4.00183e-16
4.00704e-16
4.01233e-16
4.01726e-16
4.02199e-16
4.0263e-16
4.03044e-16
4.03404e-16
4.03725e-16
4.04245e-16
4.04538e-16
4.04893e-16
4.05344e-16
4.05654e-16
4.05976e-16
4.06285e-16
4.06558e-16
4.06904e-16
4.07261e-16
4.07668e-16
4.07869e-16
4.08132e-16
4.08442e-16
4.08712e-16
4.08976e-16
4.09184e-16
4.09314e-16
4.0949e-16
4.09762e-16
4.09989e-16
4.10123e-16
4.10427e-16
4.10685e-16
4.10868e-16
4.11052e-16
4.11211e-16
4.11472e-16
4.11534e-16
4.11857e-16
4.11943e-16
4.11984e-16
4.12183e-16
4.12327e-16
4.12217e-16
4.12431e-16
4.12578e-16
4.12617e-16
4.12668e-16
4.12831e-16
4.12863e-16
4.12856e-16
4.1302e-16
4.13124e-16
4.13211e-16
4.13337e-16
4.13439e-16
4.13346e-16
4.13435e-16
4.1335e-16
4.13367e-16
4.13437e-16
4.13333e-16
3.46369e-16
3.47691e-16
3.48418e-16
3.50177e-16
3.52494e-16
3.54839e-16
3.56971e-16
3.58858e-16
3.60456e-16
3.619e-16
3.63206e-16
3.64416e-16
3.65502e-16
3.66573e-16
3.67484e-16
3.68401e-16
3.69143e-16
3.69993e-16
3.70917e-16
3.71563e-16
3.72296e-16
3.73092e-16
3.73806e-16
3.74552e-16
3.75366e-16
3.75999e-16
3.76701e-16
3.77357e-16
3.7795e-16
3.786e-16
3.79185e-16
3.79893e-16
3.80758e-16
3.81231e-16
3.81864e-16
3.82668e-16
3.83158e-16
3.83794e-16
3.84384e-16
3.85148e-16
3.8569e-16
3.86375e-16
3.87018e-16
3.87569e-16
3.88337e-16
3.89076e-16
3.89593e-16
3.90222e-16
3.90861e-16
3.91647e-16
3.9228e-16
3.92858e-16
3.9357e-16
3.94159e-16
3.94847e-16
3.95566e-16
3.96219e-16
3.9678e-16
3.97428e-16
3.98042e-16
3.98514e-16
3.99227e-16
3.99747e-16
4.00145e-16
4.00653e-16
4.01407e-16
4.01922e-16
4.0225e-16
4.02708e-16
4.03244e-16
4.03397e-16
4.03623e-16
4.04228e-16
4.04658e-16
4.04833e-16
4.05185e-16
4.05558e-16
4.05983e-16
4.06124e-16
4.06541e-16
4.06897e-16
4.07211e-16
4.07681e-16
4.07905e-16
4.0809e-16
4.0836e-16
4.08874e-16
4.09053e-16
4.0917e-16
4.09293e-16
4.09582e-16
4.09841e-16
4.09974e-16
4.10125e-16
4.10511e-16
4.1069e-16
4.10926e-16
4.11113e-16
4.11339e-16
4.11459e-16
4.1153e-16
4.11874e-16
4.11873e-16
4.12081e-16
4.12147e-16
4.12165e-16
4.12092e-16
4.12424e-16
4.12549e-16
4.12624e-16
4.12716e-16
4.12761e-16
4.1282e-16
4.12737e-16
4.12942e-16
4.13156e-16
4.13326e-16
4.13431e-16
4.13515e-16
4.13246e-16
4.13423e-16
4.13351e-16
4.13364e-16
4.13579e-16
4.13383e-16
3.51961e-16
3.51869e-16
3.51783e-16
3.52475e-16
3.53766e-16
3.55408e-16
3.57108e-16
3.58737e-16
3.60229e-16
3.6155e-16
3.62926e-16
3.6409e-16
3.6521e-16
3.66297e-16
3.67353e-16
3.68234e-16
3.69074e-16
3.6993e-16
3.70692e-16
3.71387e-16
3.72213e-16
3.72986e-16
3.73655e-16
3.74599e-16
3.75253e-16
3.75965e-16
3.76569e-16
3.77259e-16
3.77994e-16
3.78625e-16
3.79249e-16
3.79946e-16
3.80838e-16
3.81234e-16
3.81806e-16
3.82554e-16
3.83125e-16
3.83687e-16
3.84329e-16
3.85077e-16
3.85669e-16
3.86407e-16
3.87054e-16
3.87546e-16
3.88416e-16
3.89021e-16
3.89716e-16
3.90292e-16
3.91019e-16
3.91637e-16
3.92368e-16
3.9282e-16
3.93596e-16
3.94429e-16
3.94831e-16
3.9556e-16
3.96088e-16
3.96824e-16
3.97548e-16
3.98081e-16
3.98594e-16
3.99236e-16
3.99826e-16
4.00261e-16
4.00729e-16
4.01396e-16
4.01633e-16
4.02334e-16
4.02814e-16
4.0317e-16
4.03522e-16
4.03859e-16
4.04207e-16
4.04599e-16
4.04966e-16
4.0531e-16
4.05573e-16
4.06174e-16
4.06413e-16
4.06679e-16
4.07073e-16
4.07279e-16
4.07532e-16
4.07932e-16
4.08159e-16
4.08142e-16
4.08798e-16
4.08947e-16
4.09144e-16
4.09424e-16
4.09596e-16
4.09839e-16
4.10018e-16
4.10286e-16
4.10482e-16
4.10818e-16
4.11193e-16
4.11236e-16
4.11274e-16
4.11329e-16
4.11645e-16
4.11799e-16
4.11887e-16
4.12107e-16
4.12216e-16
4.1223e-16
4.12213e-16
4.1252e-16
4.12262e-16
4.1262e-16
4.12828e-16
4.12759e-16
4.12934e-16
4.1278e-16
4.12903e-16
4.12988e-16
4.13217e-16
4.13373e-16
4.13385e-16
4.13289e-16
4.13398e-16
4.13284e-16
4.13252e-16
4.1332e-16
4.13219e-16
3.55787e-16
3.55177e-16
3.54703e-16
3.54782e-16
3.55385e-16
3.56374e-16
3.57642e-16
3.58998e-16
3.60369e-16
3.61558e-16
3.62768e-16
3.63925e-16
3.6498e-16
3.6589e-16
3.66994e-16
3.67807e-16
3.68832e-16
3.69831e-16
3.70629e-16
3.71315e-16
3.72125e-16
3.7303e-16
3.73872e-16
3.74236e-16
3.75215e-16
3.75833e-16
3.76405e-16
3.77175e-16
3.77988e-16
3.7863e-16
3.79238e-16
3.79893e-16
3.80575e-16
3.81098e-16
3.81807e-16
3.82588e-16
3.83025e-16
3.83427e-16
3.84264e-16
3.8487e-16
3.8561e-16
3.86416e-16
3.87005e-16
3.87524e-16
3.88442e-16
3.89028e-16
3.90026e-16
3.90281e-16
3.90904e-16
3.91685e-16
3.92348e-16
3.92817e-16
3.93534e-16
3.94485e-16
3.94855e-16
3.95677e-16
3.96163e-16
3.96836e-16
3.97516e-16
3.98087e-16
3.98623e-16
3.99399e-16
4.00198e-16
4.00449e-16
4.00933e-16
4.01283e-16
4.01639e-16
4.0233e-16
4.02509e-16
4.03079e-16
4.03625e-16
4.04037e-16
4.04378e-16
4.04693e-16
4.04977e-16
4.05187e-16
4.05583e-16
4.06331e-16
4.06916e-16
4.0674e-16
4.07127e-16
4.07391e-16
4.07637e-16
4.07649e-16
4.07961e-16
4.08304e-16
4.08679e-16
4.08693e-16
4.09025e-16
4.09392e-16
4.09628e-16
4.09998e-16
4.10032e-16
4.1042e-16
4.10432e-16
4.10959e-16
4.1129e-16
4.11556e-16
4.10884e-16
4.11231e-16
4.11682e-16
4.11715e-16
4.11855e-16
4.12043e-16
4.12366e-16
4.12199e-16
4.12029e-16
4.12449e-16
4.12109e-16
4.12619e-16
4.12649e-16
4.12756e-16
4.1314e-16
4.12706e-16
4.12866e-16
4.1269e-16
4.133e-16
4.13656e-16
4.13336e-16
4.13354e-16
4.13475e-16
4.13311e-16
4.13347e-16
4.13144e-16
4.13073e-16
3.58201e-16
3.57589e-16
3.57049e-16
3.56835e-16
3.57017e-16
3.57562e-16
3.58432e-16
3.59452e-16
3.60525e-16
3.61737e-16
3.62811e-16
3.63956e-16
3.64917e-16
3.65866e-16
3.66904e-16
3.67886e-16
3.68713e-16
3.69682e-16
3.70523e-16
3.71261e-16
3.72031e-16
3.72963e-16
3.73688e-16
3.74276e-16
3.75118e-16
3.75758e-16
3.76409e-16
3.77131e-16
3.77902e-16
3.78346e-16
3.79097e-16
3.79852e-16
3.80519e-16
3.81093e-16
3.81666e-16
3.82381e-16
3.8285e-16
3.8365e-16
3.84197e-16
3.8495e-16
3.8558e-16
3.86256e-16
3.86847e-16
3.8763e-16
3.88396e-16
3.88836e-16
3.89795e-16
3.9042e-16
3.91046e-16
3.91746e-16
3.92299e-16
3.93044e-16
3.93772e-16
3.944e-16
3.94828e-16
3.95587e-16
3.96073e-16
3.96778e-16
3.97405e-16
3.97977e-16
3.98738e-16
3.99373e-16
3.99982e-16
4.00549e-16
4.01327e-16
4.01274e-16
4.01728e-16
4.02462e-16
4.02942e-16
4.03241e-16
4.03746e-16
4.04151e-16
4.04463e-16
4.04374e-16
4.04768e-16
4.05458e-16
4.05799e-16
4.06156e-16
4.06875e-16
4.0642e-16
4.07194e-16
4.07713e-16
4.07875e-16
4.07776e-16
4.0825e-16
4.0837e-16
4.08396e-16
4.08839e-16
4.0933e-16
4.09348e-16
4.09552e-16
4.09803e-16
4.09959e-16
4.10287e-16
4.106e-16
4.11037e-16
4.11328e-16
4.11216e-16
4.11118e-16
4.11581e-16
4.11886e-16
4.11509e-16
4.11693e-16
4.12022e-16
4.12046e-16
4.1206e-16
4.12093e-16
4.12423e-16
4.12639e-16
4.12679e-16
4.12312e-16
4.12755e-16
4.13253e-16
4.13003e-16
4.1283e-16
4.12644e-16
4.13285e-16
4.13284e-16
4.13351e-16
4.13396e-16
4.1338e-16
4.13739e-16
4.13617e-16
4.14489e-16
4.13456e-16
3.59945e-16
3.59443e-16
3.58943e-16
3.58604e-16
3.58549e-16
3.58779e-16
3.59387e-16
3.60138e-16
3.60971e-16
3.62056e-16
3.62995e-16
3.63971e-16
3.64934e-16
3.65878e-16
3.66977e-16
3.67869e-16
3.68666e-16
3.69467e-16
3.70282e-16
3.70953e-16
3.71785e-16
3.72697e-16
3.7388e-16
3.74322e-16
3.74957e-16
3.75663e-16
3.76302e-16
3.77095e-16
3.77968e-16
3.78189e-16
3.78822e-16
3.79771e-16
3.80738e-16
3.81622e-16
3.81814e-16
3.82234e-16
3.82801e-16
3.83507e-16
3.84283e-16
3.85043e-16
3.85617e-16
3.86231e-16
3.87021e-16
3.87676e-16
3.88094e-16
3.88645e-16
3.89471e-16
3.90394e-16
3.91073e-16
3.91917e-16
3.92121e-16
3.93052e-16
3.94211e-16
3.93981e-16
3.94848e-16
3.95564e-16
3.96528e-16
3.97284e-16
3.9766e-16
3.9808e-16
3.98617e-16
3.99365e-16
4.00009e-16
4.00794e-16
4.01444e-16
4.01542e-16
4.02141e-16
4.02675e-16
4.03457e-16
4.03233e-16
4.03933e-16
4.04253e-16
4.04533e-16
4.05048e-16
4.04904e-16
4.04972e-16
4.06115e-16
4.06357e-16
4.06587e-16
4.06116e-16
4.0674e-16
4.0782e-16
4.07985e-16
4.08158e-16
4.08673e-16
4.09311e-16
4.08429e-16
4.08784e-16
4.10018e-16
4.09214e-16
4.0944e-16
4.09472e-16
4.09208e-16
4.10326e-16
4.10219e-16
4.10793e-16
4.11023e-16
4.11177e-16
4.11182e-16
4.11416e-16
4.11644e-16
4.11553e-16
4.11807e-16
4.11863e-16
4.11798e-16
4.12257e-16
4.11937e-16
4.12427e-16
4.12405e-16
4.12646e-16
4.12321e-16
4.1285e-16
4.13061e-16
4.1299e-16
4.12795e-16
4.13076e-16
4.12807e-16
4.13043e-16
4.1358e-16
4.13459e-16
4.13262e-16
4.13973e-16
4.13532e-16
4.14751e-16
4.13241e-16
3.61351e-16
3.60966e-16
3.60525e-16
3.60205e-16
3.59994e-16
3.59957e-16
3.60436e-16
3.60942e-16
3.61549e-16
3.62465e-16
3.63332e-16
3.64217e-16
3.65124e-16
3.66256e-16
3.66776e-16
3.67699e-16
3.68878e-16
3.69413e-16
3.70218e-16
3.70847e-16
3.71247e-16
3.72088e-16
3.73348e-16
3.74463e-16
3.74843e-16
3.75618e-16
3.76051e-16
3.7699e-16
3.78095e-16
3.7842e-16
3.79241e-16
3.79785e-16
3.8068e-16
3.81217e-16
3.8193e-16
3.82551e-16
3.83233e-16
3.83637e-16
3.84402e-16
3.84827e-16
3.85983e-16
3.86306e-16
3.86983e-16
3.87119e-16
3.87548e-16
3.88469e-16
3.88597e-16
3.89984e-16
3.90773e-16
3.92436e-16
3.92178e-16
3.92814e-16
3.94672e-16
3.93933e-16
3.94871e-16
3.96306e-16
3.96172e-16
3.97315e-16
3.97733e-16
3.98433e-16
3.98567e-16
3.99425e-16
4.00249e-16
4.0076e-16
4.01504e-16
4.01476e-16
4.02555e-16
4.02777e-16
4.03412e-16
4.0363e-16
4.0443e-16
4.04386e-16
4.04399e-16
4.04669e-16
4.05715e-16
4.05593e-16
4.05976e-16
4.07093e-16
4.06587e-16
4.0641e-16
4.07569e-16
4.08028e-16
4.08426e-16
4.0828e-16
4.08476e-16
4.09645e-16
4.08318e-16
4.08805e-16
4.10137e-16
4.09689e-16
4.09861e-16
4.09944e-16
4.09716e-16
4.10399e-16
4.09506e-16
4.1007e-16
4.11428e-16
4.10748e-16
4.11314e-16
4.12215e-16
4.11622e-16
4.11192e-16
4.11864e-16
4.11594e-16
4.11184e-16
4.12081e-16
4.12404e-16
4.126e-16
4.12463e-16
4.12535e-16
4.12675e-16
4.13196e-16
4.12551e-16
4.13141e-16
4.12609e-16
4.13733e-16
4.12231e-16
4.13773e-16
4.1378e-16
4.13671e-16
4.13437e-16
4.1434e-16
4.13427e-16
4.13928e-16
4.132e-16
3.62533e-16
3.62223e-16
3.61872e-16
3.61588e-16
3.61394e-16
3.61229e-16
3.61377e-16
3.61777e-16
3.62262e-16
3.63092e-16
3.63924e-16
3.64834e-16
3.6541e-16
3.66275e-16
3.66798e-16
3.67422e-16
3.6867e-16
3.69619e-16
3.7033e-16
3.71038e-16
3.7165e-16
3.7251e-16
3.73537e-16
3.74696e-16
3.75111e-16
3.75873e-16
3.76492e-16
3.7688e-16
3.77904e-16
3.78416e-16
3.79088e-16
3.79799e-16
3.80781e-16
3.81716e-16
3.81869e-16
3.82466e-16
3.83393e-16
3.83514e-16
3.84931e-16
3.855e-16
3.86621e-16
3.86395e-16
3.87339e-16
3.87427e-16
3.87345e-16
3.88574e-16
3.89714e-16
3.9005e-16
3.90809e-16
3.9191e-16
3.92729e-16
3.9329e-16
3.94641e-16
3.94897e-16
3.95514e-16
3.96874e-16
3.96902e-16
3.97906e-16
3.9809e-16
3.98838e-16
3.98514e-16
3.99938e-16
4.0092e-16
4.00908e-16
4.0232e-16
4.01828e-16
4.0184e-16
4.02666e-16
4.03886e-16
4.0406e-16
4.04233e-16
4.04407e-16
4.04999e-16
4.05113e-16
4.05396e-16
4.05267e-16
4.065e-16
4.06917e-16
4.06516e-16
4.07018e-16
4.07913e-16
4.0756e-16
4.08636e-16
4.08798e-16
4.0941e-16
4.09738e-16
4.08436e-16
4.08983e-16
4.09323e-16
4.09457e-16
4.0938e-16
4.1043e-16
4.09593e-16
4.10442e-16
4.09409e-16
4.10383e-16
4.11386e-16
4.10885e-16
4.11493e-16
4.12108e-16
4.11686e-16
4.11135e-16
4.12115e-16
4.11804e-16
4.1215e-16
4.12982e-16
4.13123e-16
4.12905e-16
4.12459e-16
4.12241e-16
4.1265e-16
4.13396e-16
4.12847e-16
4.13112e-16
4.12696e-16
4.13232e-16
4.13221e-16
4.14384e-16
4.13619e-16
4.13951e-16
4.12503e-16
4.14623e-16
4.1328e-16
4.12758e-16
4.12669e-16
3.63561e-16
3.63324e-16
3.63026e-16
3.62717e-16
3.62487e-16
3.62309e-16
3.62386e-16
3.62689e-16
3.63149e-16
3.6346e-16
3.64407e-16
3.65178e-16
3.6575e-16
3.66355e-16
3.67121e-16
3.67864e-16
3.68759e-16
3.69626e-16
3.70562e-16
3.71275e-16
3.72209e-16
3.72673e-16
3.73636e-16
3.74176e-16
3.74307e-16
3.75798e-16
3.76705e-16
3.77189e-16
3.77652e-16
3.7829e-16
3.78888e-16
3.8007e-16
3.80778e-16
3.81206e-16
3.81763e-16
3.82263e-16
3.83295e-16
3.83738e-16
3.84831e-16
3.85236e-16
3.85844e-16
3.86212e-16
3.87357e-16
3.87331e-16
3.88296e-16
3.89047e-16
3.89445e-16
3.90252e-16
3.90879e-16
3.91933e-16
3.92314e-16
3.93308e-16
3.9401e-16
3.94449e-16
3.95378e-16
3.96187e-16
3.9673e-16
3.97462e-16
3.9802e-16
3.98585e-16
3.98744e-16
3.99923e-16
4.00703e-16
4.00608e-16
4.01415e-16
4.0208e-16
4.02201e-16
4.03012e-16
4.03624e-16
4.03992e-16
4.04124e-16
4.04214e-16
4.04928e-16
4.05414e-16
4.05255e-16
4.05686e-16
4.06644e-16
4.06503e-16
4.07036e-16
4.07291e-16
4.07668e-16
4.08154e-16
4.08297e-16
4.08562e-16
4.09009e-16
4.09584e-16
4.0946e-16
4.09271e-16
4.08518e-16
4.09105e-16
4.09506e-16
4.1028e-16
4.09491e-16
4.10332e-16
4.10629e-16
4.10885e-16
4.11246e-16
4.1059e-16
4.10996e-16
4.1204e-16
4.11274e-16
4.11502e-16
4.12176e-16
4.11624e-16
4.12052e-16
4.12226e-16
4.12404e-16
4.12683e-16
4.12373e-16
4.12346e-16
4.12345e-16
4.13409e-16
4.13211e-16
4.12996e-16
4.12483e-16
4.13e-16
4.13165e-16
4.13724e-16
4.13392e-16
4.13663e-16
4.13451e-16
4.13954e-16
4.13736e-16
4.13463e-16
4.13033e-16
3.64482e-16
3.64288e-16
3.64063e-16
3.63798e-16
3.63474e-16
3.6332e-16
3.63336e-16
3.63537e-16
3.63786e-16
3.63852e-16
3.64876e-16
3.65553e-16
3.66026e-16
3.66302e-16
3.67355e-16
3.68054e-16
3.68913e-16
3.69509e-16
3.70698e-16
3.71525e-16
3.72372e-16
3.73131e-16
3.73953e-16
3.73613e-16
3.74725e-16
3.75525e-16
3.76439e-16
3.77015e-16
3.77236e-16
3.78198e-16
3.78365e-16
3.79897e-16
3.8015e-16
3.8071e-16
3.81861e-16
3.82978e-16
3.84145e-16
3.83647e-16
3.84576e-16
3.85119e-16
3.8565e-16
3.86716e-16
3.87483e-16
3.87307e-16
3.88726e-16
3.89046e-16
3.89169e-16
3.90294e-16
3.90518e-16
3.91979e-16
3.92323e-16
3.9367e-16
3.95054e-16
3.952e-16
3.95448e-16
3.96021e-16
3.96557e-16
3.97075e-16
3.978e-16
3.98417e-16
3.99329e-16
4.00146e-16
4.0124e-16
4.01062e-16
4.01671e-16
4.02304e-16
4.03227e-16
4.0363e-16
4.03721e-16
4.04048e-16
4.03783e-16
4.04654e-16
4.04738e-16
4.04926e-16
4.05528e-16
4.05885e-16
4.06428e-16
4.05946e-16
4.06835e-16
4.07517e-16
4.07343e-16
4.09182e-16
4.07871e-16
4.08433e-16
4.09364e-16
4.09518e-16
4.08912e-16
4.08796e-16
4.08297e-16
4.09435e-16
4.09085e-16
4.09781e-16
4.09895e-16
4.09443e-16
4.10798e-16
4.10413e-16
4.10345e-16
4.1044e-16
4.11348e-16
4.12112e-16
4.11771e-16
4.11365e-16
4.1141e-16
4.11801e-16
4.12401e-16
4.13372e-16
4.12303e-16
4.12991e-16
4.12002e-16
4.12103e-16
4.12502e-16
4.1318e-16
4.13081e-16
4.13125e-16
4.12879e-16
4.13028e-16
4.13135e-16
4.13789e-16
4.1311e-16
4.13346e-16
4.14101e-16
4.1376e-16
4.13309e-16
4.1407e-16
4.13755e-16
3.65308e-16
3.65149e-16
3.64954e-16
3.64721e-16
3.64449e-16
3.64299e-16
3.64246e-16
3.64346e-16
3.64541e-16
3.64877e-16
3.65415e-16
3.65874e-16
3.66621e-16
3.66887e-16
3.67642e-16
3.68406e-16
3.69182e-16
3.69038e-16
3.70264e-16
3.71405e-16
3.72271e-16
3.72793e-16
3.73604e-16
3.74043e-16
3.75072e-16
3.75544e-16
3.76458e-16
3.77144e-16
3.77676e-16
3.78592e-16
3.79133e-16
3.79832e-16
3.80351e-16
3.80635e-16
3.81805e-16
3.82226e-16
3.84013e-16
3.84044e-16
3.84774e-16
3.8518e-16
3.85393e-16
3.86274e-16
3.87088e-16
3.87319e-16
3.88436e-16
3.88843e-16
3.89982e-16
3.89819e-16
3.90903e-16
3.92308e-16
3.92445e-16
3.94047e-16
3.94208e-16
3.94734e-16
3.95626e-16
3.9632e-16
3.96232e-16
3.97563e-16
3.98354e-16
3.99529e-16
3.9958e-16
4.00078e-16
4.00187e-16
4.00822e-16
4.01801e-16
4.02117e-16
4.03275e-16
4.03392e-16
4.03695e-16
4.03896e-16
4.0388e-16
4.05291e-16
4.0448e-16
4.05721e-16
4.05697e-16
4.05516e-16
4.06707e-16
4.06594e-16
4.07707e-16
4.07682e-16
4.07001e-16
4.08952e-16
4.07938e-16
4.08584e-16
4.09178e-16
4.09799e-16
4.08555e-16
4.0846e-16
4.09573e-16
4.09537e-16
4.08861e-16
4.09489e-16
4.10565e-16
4.09441e-16
4.10417e-16
4.09976e-16
4.10764e-16
4.10575e-16
4.10766e-16
4.11422e-16
4.11732e-16
4.10842e-16
4.10841e-16
4.11723e-16
4.12046e-16
4.13028e-16
4.12143e-16
4.13168e-16
4.12157e-16
4.12117e-16
4.12385e-16
4.12828e-16
4.13432e-16
4.12983e-16
4.12626e-16
4.12904e-16
4.13272e-16
4.13432e-16
4.13204e-16
4.14246e-16
4.13592e-16
4.13918e-16
4.13835e-16
4.15003e-16
4.14329e-16
3.66059e-16
3.65927e-16
3.65755e-16
3.6548e-16
3.65298e-16
3.65316e-16
3.65135e-16
3.65044e-16
3.65006e-16
3.65627e-16
3.66256e-16
3.66875e-16
3.67254e-16
3.67403e-16
3.67597e-16
3.68418e-16
3.69401e-16
3.69849e-16
3.70521e-16
3.71555e-16
3.72907e-16
3.73219e-16
3.73363e-16
3.74176e-16
3.74907e-16
3.7454e-16
3.76271e-16
3.77223e-16
3.7783e-16
3.79348e-16
3.79832e-16
3.79913e-16
3.80759e-16
3.81414e-16
3.82546e-16
3.82519e-16
3.84082e-16
3.84124e-16
3.84053e-16
3.85206e-16
3.85562e-16
3.85656e-16
3.87091e-16
3.88124e-16
3.89003e-16
3.89726e-16
3.90144e-16
3.90386e-16
3.91628e-16
3.93193e-16
3.92813e-16
3.92517e-16
3.94085e-16
3.94327e-16
3.95962e-16
3.96988e-16
3.96587e-16
3.98435e-16
3.98551e-16
3.99706e-16
3.99114e-16
3.99614e-16
3.99048e-16
4.00949e-16
4.02039e-16
4.02344e-16
4.0248e-16
4.03025e-16
4.03434e-16
4.03276e-16
4.04321e-16
4.04929e-16
4.04475e-16
4.05293e-16
4.05688e-16
4.05765e-16
4.06567e-16
4.07724e-16
4.0763e-16
4.07914e-16
4.07156e-16
4.08872e-16
4.08743e-16
4.09275e-16
4.09961e-16
4.09729e-16
4.07895e-16
4.08776e-16
4.09547e-16
4.09691e-16
4.0921e-16
4.0922e-16
4.09417e-16
4.09478e-16
4.09465e-16
4.10144e-16
4.11613e-16
4.10124e-16
4.1086e-16
4.11243e-16
4.1131e-16
4.11439e-16
4.10116e-16
4.11428e-16
4.12261e-16
4.127e-16
4.11895e-16
4.13266e-16
4.12598e-16
4.11226e-16
4.13185e-16
4.13167e-16
4.13003e-16
4.11822e-16
4.12315e-16
4.12567e-16
4.13656e-16
4.13372e-16
4.12713e-16
4.15734e-16
4.12558e-16
4.14022e-16
4.14019e-16
4.14322e-16
4.13885e-16
3.66767e-16
3.66657e-16
3.6652e-16
3.66258e-16
3.65958e-16
3.661e-16
3.66041e-16
3.66071e-16
3.66077e-16
3.66377e-16
3.66697e-16
3.67146e-16
3.67812e-16
3.68488e-16
3.68531e-16
3.68621e-16
3.69568e-16
3.70081e-16
3.71105e-16
3.71421e-16
3.72596e-16
3.73159e-16
3.73823e-16
3.74412e-16
3.74386e-16
3.74944e-16
3.76104e-16
3.77392e-16
3.78543e-16
3.79948e-16
3.79596e-16
3.79564e-16
3.8157e-16
3.82068e-16
3.82798e-16
3.83884e-16
3.84096e-16
3.84085e-16
3.85039e-16
3.85438e-16
3.85534e-16
3.8683e-16
3.87398e-16
3.8789e-16
3.89529e-16
3.89891e-16
3.90053e-16
3.89522e-16
3.9142e-16
3.92842e-16
3.93147e-16
3.93309e-16
3.94669e-16
3.95338e-16
3.95143e-16
3.95287e-16
3.97097e-16
3.98055e-16
3.98115e-16
3.99314e-16
3.99317e-16
4.00129e-16
3.99988e-16
4.00922e-16
4.0244e-16
4.02684e-16
4.02994e-16
4.0367e-16
4.04118e-16
4.04115e-16
4.04128e-16
4.04512e-16
4.04967e-16
4.06233e-16
4.06718e-16
4.06809e-16
4.05946e-16
4.07611e-16
4.07073e-16
4.06487e-16
4.07767e-16
4.08313e-16
4.08509e-16
4.094e-16
4.08601e-16
4.10162e-16
4.0775e-16
4.08653e-16
4.08013e-16
4.09122e-16
4.09369e-16
4.10594e-16
4.09479e-16
4.09058e-16
4.09835e-16
4.10233e-16
4.10656e-16
4.09923e-16
4.11342e-16
4.11641e-16
4.11291e-16
4.11721e-16
4.10354e-16
4.11297e-16
4.12868e-16
4.12147e-16
4.12383e-16
4.1259e-16
4.13107e-16
4.11914e-16
4.14089e-16
4.14398e-16
4.11658e-16
4.14364e-16
4.12647e-16
4.12937e-16
4.1347e-16
4.14035e-16
4.13406e-16
4.13993e-16
4.13337e-16
4.13425e-16
4.12589e-16
4.14526e-16
4.13784e-16
3.67407e-16
3.67339e-16
3.67188e-16
3.6694e-16
3.66842e-16
3.66953e-16
3.6665e-16
3.66781e-16
3.66804e-16
3.67316e-16
3.67303e-16
3.67696e-16
3.68044e-16
3.68602e-16
3.69471e-16
3.69486e-16
3.69984e-16
3.70509e-16
3.71517e-16
3.71584e-16
3.72172e-16
3.73234e-16
3.74381e-16
3.74518e-16
3.74008e-16
3.7533e-16
3.76756e-16
3.77703e-16
3.78371e-16
3.79518e-16
3.79535e-16
3.79546e-16
3.80671e-16
3.81669e-16
3.81856e-16
3.83078e-16
3.82515e-16
3.82817e-16
3.84516e-16
3.85478e-16
3.85871e-16
3.86882e-16
3.87789e-16
3.87659e-16
3.88302e-16
3.88954e-16
3.90034e-16
3.90369e-16
3.91326e-16
3.94047e-16
3.94005e-16
3.9433e-16
3.94031e-16
3.94907e-16
3.95795e-16
3.96904e-16
3.97456e-16
3.98232e-16
3.99162e-16
3.99641e-16
3.99773e-16
3.99844e-16
3.9996e-16
4.01554e-16
4.03275e-16
4.03e-16
4.02989e-16
4.03815e-16
4.02797e-16
4.04017e-16
4.04646e-16
4.05309e-16
4.06032e-16
4.06062e-16
4.07116e-16
4.07219e-16
4.06112e-16
4.06809e-16
4.05906e-16
4.06991e-16
4.08201e-16
4.08177e-16
4.08493e-16
4.10021e-16
4.09164e-16
4.09664e-16
4.08002e-16
4.08681e-16
4.06955e-16
4.08908e-16
4.09102e-16
4.09405e-16
4.0924e-16
4.0911e-16
4.10384e-16
4.10823e-16
4.11881e-16
4.0983e-16
4.11067e-16
4.11555e-16
4.1168e-16
4.12967e-16
4.1161e-16
4.12793e-16
4.11083e-16
4.12607e-16
4.12011e-16
4.11998e-16
4.13148e-16
4.1236e-16
4.15724e-16
4.13401e-16
4.13194e-16
4.15299e-16
4.13187e-16
4.13262e-16
4.13874e-16
4.15771e-16
4.13956e-16
4.14012e-16
4.14543e-16
4.1389e-16
4.13889e-16
4.14655e-16
4.13871e-16
3.68037e-16
3.67972e-16
3.67874e-16
3.67819e-16
3.67544e-16
3.67404e-16
3.67339e-16
3.67375e-16
3.67041e-16
3.67729e-16
3.67771e-16
3.68142e-16
3.68688e-16
3.68955e-16
3.69632e-16
3.69909e-16
3.70411e-16
3.71456e-16
3.71704e-16
3.72695e-16
3.73964e-16
3.73493e-16
3.73942e-16
3.74731e-16
3.75172e-16
3.76151e-16
3.77134e-16
3.78287e-16
3.78272e-16
3.79036e-16
3.79726e-16
3.80314e-16
3.81074e-16
3.82174e-16
3.83422e-16
3.83442e-16
3.84003e-16
3.83191e-16
3.84779e-16
3.85026e-16
3.85519e-16
3.86799e-16
3.87634e-16
3.88195e-16
3.88765e-16
3.8938e-16
3.89893e-16
3.90374e-16
3.9146e-16
3.93013e-16
3.93212e-16
3.93782e-16
3.95239e-16
3.96089e-16
3.96351e-16
3.96153e-16
3.97705e-16
3.97154e-16
3.98659e-16
4.00205e-16
3.99909e-16
4.00227e-16
4.00141e-16
4.01772e-16
4.03518e-16
4.03167e-16
4.01783e-16
4.04321e-16
4.03933e-16
4.04978e-16
4.05167e-16
4.06116e-16
4.05852e-16
4.0566e-16
4.06732e-16
4.08617e-16
4.06958e-16
4.05816e-16
4.07137e-16
4.07476e-16
4.08967e-16
4.0881e-16
4.08487e-16
4.08849e-16
4.07627e-16
4.09272e-16
4.08938e-16
4.09525e-16
4.07856e-16
4.09466e-16
4.09328e-16
4.08351e-16
4.08417e-16
4.09377e-16
4.10205e-16
4.10909e-16
4.10742e-16
4.09955e-16
4.11353e-16
4.11076e-16
4.10849e-16
4.1225e-16
4.12212e-16
4.12702e-16
4.12419e-16
4.1312e-16
4.12872e-16
4.12404e-16
4.12706e-16
4.12548e-16
4.1497e-16
4.13234e-16
4.14235e-16
4.14072e-16
4.13215e-16
4.1365e-16
4.13162e-16
4.14135e-16
4.14586e-16
4.14099e-16
4.14225e-16
4.13737e-16
4.14159e-16
4.16027e-16
4.1338e-16
3.68634e-16
3.68553e-16
3.68478e-16
3.6845e-16
3.68082e-16
3.67855e-16
3.67981e-16
3.68094e-16
3.67979e-16
3.68409e-16
3.68448e-16
3.68643e-16
3.69371e-16
3.69345e-16
3.69573e-16
3.70136e-16
3.70333e-16
3.71328e-16
3.71923e-16
3.73359e-16
3.7344e-16
3.73641e-16
3.73426e-16
3.75031e-16
3.75111e-16
3.7623e-16
3.7712e-16
3.77879e-16
3.78003e-16
3.79395e-16
3.8029e-16
3.80725e-16
3.81481e-16
3.82334e-16
3.85095e-16
3.83878e-16
3.84387e-16
3.84635e-16
3.85123e-16
3.84629e-16
3.863e-16
3.87317e-16
3.8793e-16
3.88522e-16
3.89224e-16
3.8966e-16
3.90699e-16
3.91274e-16
3.9104e-16
3.9286e-16
3.9279e-16
3.93035e-16
3.95185e-16
3.95573e-16
3.95535e-16
3.9633e-16
3.96866e-16
3.9718e-16
3.981e-16
3.99522e-16
3.99653e-16
4.00081e-16
4.01284e-16
4.01535e-16
4.02745e-16
4.03945e-16
4.02735e-16
4.03981e-16
4.03564e-16
4.04648e-16
4.05284e-16
4.06202e-16
4.05965e-16
4.049e-16
4.05888e-16
4.07511e-16
4.06911e-16
4.07232e-16
4.07951e-16
4.09058e-16
4.0897e-16
4.0765e-16
4.07816e-16
4.09012e-16
4.06542e-16
4.08531e-16
4.09796e-16
4.09655e-16
4.06695e-16
4.09057e-16
4.10529e-16
4.08572e-16
4.08324e-16
4.09421e-16
4.10354e-16
4.11087e-16
4.10371e-16
4.08624e-16
4.10669e-16
4.10843e-16
4.09321e-16
4.11499e-16
4.11601e-16
4.11591e-16
4.12149e-16
4.1247e-16
4.12553e-16
4.12553e-16
4.12421e-16
4.1181e-16
4.12927e-16
4.12053e-16
4.15231e-16
4.12786e-16
4.13015e-16
4.13396e-16
4.12392e-16
4.13058e-16
4.14626e-16
4.13522e-16
4.12492e-16
4.13979e-16
4.13542e-16
4.13886e-16
4.1174e-16
3.69184e-16
3.69088e-16
3.68996e-16
3.68868e-16
3.68819e-16
3.6873e-16
3.68613e-16
3.686e-16
3.68652e-16
3.68731e-16
3.68978e-16
3.69313e-16
3.69863e-16
3.69702e-16
3.70116e-16
3.70767e-16
3.71414e-16
3.71636e-16
3.7159e-16
3.72812e-16
3.7384e-16
3.75268e-16
3.74367e-16
3.75124e-16
3.75695e-16
3.7654e-16
3.77519e-16
3.78598e-16
3.79635e-16
3.8106e-16
3.79657e-16
3.80613e-16
3.82115e-16
3.83091e-16
3.84269e-16
3.83951e-16
3.85525e-16
3.85409e-16
3.85483e-16
3.85379e-16
3.8529e-16
3.88446e-16
3.88781e-16
3.88785e-16
3.89915e-16
3.89494e-16
3.9088e-16
3.9108e-16
3.90564e-16
3.92145e-16
3.926e-16
3.93678e-16
3.94036e-16
3.95315e-16
3.96831e-16
3.96695e-16
3.97463e-16
3.99043e-16
3.98912e-16
3.99621e-16
4.00844e-16
4.00273e-16
4.02238e-16
4.01919e-16
4.01932e-16
4.0419e-16
4.03119e-16
4.04211e-16
4.04254e-16
4.04551e-16
4.05238e-16
4.05772e-16
4.05055e-16
4.05236e-16
4.04667e-16
4.07546e-16
4.06384e-16
4.08172e-16
4.07918e-16
4.08948e-16
4.08592e-16
4.07033e-16
4.06268e-16
4.0898e-16
4.07852e-16
4.08429e-16
4.08455e-16
4.0887e-16
4.07429e-16
4.08411e-16
4.08687e-16
4.09544e-16
4.08549e-16
4.09245e-16
4.08808e-16
4.09831e-16
4.11309e-16
4.09152e-16
4.09581e-16
4.10735e-16
4.10205e-16
4.12089e-16
4.11581e-16
4.10463e-16
4.11942e-16
4.12153e-16
4.11976e-16
4.12751e-16
4.12037e-16
4.11444e-16
4.12027e-16
4.11932e-16
4.1365e-16
4.1376e-16
4.12745e-16
4.14101e-16
4.14935e-16
4.11874e-16
4.1458e-16
4.13595e-16
4.13659e-16
4.13901e-16
4.11945e-16
4.1218e-16
4.16342e-16
3.69707e-16
3.6966e-16
3.69594e-16
3.69495e-16
3.69312e-16
3.69217e-16
3.69061e-16
3.69041e-16
3.69235e-16
3.69501e-16
3.69543e-16
3.69796e-16
3.70085e-16
3.70148e-16
3.70451e-16
3.7145e-16
3.71704e-16
3.71199e-16
3.72065e-16
3.73279e-16
3.75259e-16
3.74506e-16
3.7401e-16
3.75978e-16
3.76337e-16
3.77332e-16
3.79008e-16
3.78514e-16
3.7899e-16
3.79885e-16
3.79438e-16
3.80034e-16
3.81243e-16
3.82001e-16
3.81579e-16
3.84114e-16
3.85588e-16
3.84638e-16
3.85731e-16
3.87563e-16
3.87628e-16
3.87802e-16
3.87785e-16
3.88716e-16
3.8945e-16
3.90048e-16
3.92473e-16
3.91405e-16
3.90611e-16
3.91214e-16
3.93945e-16
3.94856e-16
3.9559e-16
3.94874e-16
3.96977e-16
3.96459e-16
3.98017e-16
3.99414e-16
3.99206e-16
3.99375e-16
3.99659e-16
4.0151e-16
4.01601e-16
4.02104e-16
4.03079e-16
4.044e-16
4.02683e-16
4.04255e-16
4.04821e-16
4.04219e-16
4.05273e-16
4.06428e-16
4.0513e-16
4.05625e-16
4.05726e-16
4.07463e-16