/*--------------------------------*- C++ -*----------------------------------*\
| =========                 |                                                 |
| \\      /  F ield         | OpenFOAM: The Open Source CFD Toolbox           |
|  \\    /   O peration     | Version:  2306                                  |
|   \\  /    A nd           | Website:  www.openfoam.com                      |
|    \\/     M anipulation  |                                                 |
\*---------------------------------------------------------------------------*/
// * * * * * * * * * * * * * * * * * * * * * * * * * * * * * * * * * * * * * //
FoamFile
{
    version         2;
    format          ascii;
    class           volTensorField;
    location        "0";
    object          Q_S;
}

dimensions      [ 0 0 0 0 0 0 0 ];

internalField   nonuniform List<tensor> 
15625
(
(0.707107 0.707107 3.47667e-17 0.5 -0.5 -0.707107 0.5 -0.5 0.707107)
(0.707107 0.707107 -2.95411e-14 0.214688 -0.214688 -0.952795 0.673728 -0.673728 0.303614)
(0.707107 0.707107 -1.88088e-14 0.130536 -0.130536 -0.982813 0.694953 -0.694953 0.184606)
(0.707107 0.707107 -2.18933e-14 0.0923655 -0.0923655 -0.991432 0.701048 -0.701048 0.130624)
(0.707107 0.707107 -1.60878e-14 0.0703459 -0.0703459 -0.995039 0.703599 -0.703599 0.0994842)
(0.707107 0.707107 -1.13292e-14 0.0558088 -0.0558088 -0.996881 0.704901 -0.704901 0.0789256)
(0.707107 0.707107 -8.2693e-15 0.0454574 -0.0454574 -0.997931 0.705644 -0.705644 0.0642865)
(0.707107 0.707107 -6.28857e-15 0.0377616 -0.0377616 -0.998573 0.706098 -0.706098 0.053403)
(0.707107 0.707107 -4.95806e-15 0.0318815 -0.0318815 -0.998983 0.706388 -0.706388 0.0450873)
(0.707107 0.707107 -4.0256e-15 0.0272999 -0.0272999 -0.999254 0.70658 -0.70658 0.0386079)
(0.707107 0.707107 -3.34163e-15 0.0236697 -0.0236697 -0.99944 0.706711 -0.706711 0.033474)
(0.707107 0.707107 -2.83023e-15 0.0207477 -0.0207477 -0.999569 0.706802 -0.706802 0.0293417)
(0.707107 0.707107 -2.43573e-15 0.0183657 -0.0183657 -0.999663 0.706868 -0.706868 0.0259731)
(0.707107 0.707107 -2.12371e-15 0.0163989 -0.0163989 -0.999731 0.706917 -0.706917 0.0231916)
(0.707107 0.707107 -1.8763e-15 0.0147536 -0.0147536 -0.999782 0.706953 -0.706953 0.0208647)
(0.707107 0.707107 -1.67646e-15 0.0133634 -0.0133634 -0.999821 0.70698 -0.70698 0.0188986)
(0.707107 0.707107 -1.51459e-15 0.0121763 -0.0121763 -0.999852 0.707002 -0.707002 0.0172199)
(0.707107 0.707107 -1.38155e-15 0.0111531 -0.0111531 -0.999876 0.707019 -0.707019 0.0157728)
(0.707107 0.707107 -1.2647e-15 0.0102651 -0.0102651 -0.999895 0.707032 -0.707032 0.014517)
(0.707107 0.707107 -1.16438e-15 0.00948621 -0.00948621 -0.99991 0.707043 -0.707043 0.0134155)
(0.707107 0.707107 -1.08188e-15 0.00879966 -0.00879966 -0.999923 0.707052 -0.707052 0.0124446)
(0.707107 0.707107 -1.01114e-15 0.00819152 -0.00819152 -0.999933 0.707059 -0.707059 0.0115846)
(0.707107 0.707107 -9.52765e-16 0.00764863 -0.00764863 -0.999941 0.707065 -0.707065 0.0108168)
(0.707107 0.707107 -8.99302e-16 0.00716175 -0.00716175 -0.999949 0.707071 -0.707071 0.0101282)
(0.707107 0.707107 -8.46408e-16 0.00672287 -0.00672287 -0.999955 0.707075 -0.707075 0.00950758)
(0.707107 0.707107 -7.95765e-16 0.00632506 -0.00632506 -0.99996 0.707078 -0.707078 0.00894499)
(0.707107 0.707107 -7.50439e-16 0.00596411 -0.00596411 -0.999964 0.707082 -0.707082 0.00843453)
(0.707107 0.707107 -7.1328e-16 0.00563514 -0.00563514 -0.999968 0.707084 -0.707084 0.00796929)
(0.707107 0.707107 -6.78403e-16 0.00533319 -0.00533319 -0.999972 0.707087 -0.707087 0.00754227)
(0.707107 0.707107 -6.50794e-16 0.00505619 -0.00505619 -0.999974 0.707089 -0.707089 0.00715053)
(0.707107 0.707107 -6.25239e-16 0.00480173 -0.00480173 -0.999977 0.70709 -0.70709 0.00679067)
(0.707107 0.707107 -6.01162e-16 0.00456596 -0.00456596 -0.999979 0.707092 -0.707092 0.00645724)
(0.707107 0.707107 -5.79822e-16 0.0043476 -0.0043476 -0.999981 0.707093 -0.707093 0.00614844)
(0.707107 0.707107 -5.58036e-16 0.00414605 -0.00414605 -0.999983 0.707095 -0.707095 0.0058634)
(0.707107 0.707107 -5.38246e-16 0.00395757 -0.00395757 -0.999984 0.707096 -0.707096 0.00559685)
(0.707107 0.707107 -5.15987e-16 0.00378187 -0.00378187 -0.999986 0.707097 -0.707097 0.00534837)
(0.707107 0.707107 -4.94065e-16 0.00361819 -0.00361819 -0.999987 0.707098 -0.707098 0.00511689)
(0.707107 0.707107 -4.7097e-16 0.0034643 -0.0034643 -0.999988 0.707098 -0.707098 0.00489926)
(0.707107 0.707107 -4.52653e-16 0.00332016 -0.00332016 -0.999989 0.707099 -0.707099 0.00469542)
(0.707107 0.707107 -4.50521e-16 0.00318523 -0.00318523 -0.99999 0.7071 -0.7071 0.0045046)
(0.707107 0.707107 -4.49617e-16 0.00305854 -0.00305854 -0.999991 0.7071 -0.7071 0.00432543)
(0.707107 0.707107 -4.39378e-16 0.00293823 -0.00293823 -0.999991 0.707101 -0.707101 0.00415529)
(0.707107 0.707107 -4.28316e-16 0.00282491 -0.00282491 -0.999992 0.707101 -0.707101 0.00399503)
(0.707107 0.707107 -4.20974e-16 0.00271825 -0.00271825 -0.999993 0.707102 -0.707102 0.00384418)
(0.707107 0.707107 -4.13668e-16 0.002617 -0.002617 -0.999993 0.707102 -0.707102 0.00370099)
(0.707107 0.707107 -4.05125e-16 0.00252091 -0.00252091 -0.999994 0.707102 -0.707102 0.0035651)
(0.707107 0.707107 -4.01062e-16 0.00242974 -0.00242974 -0.999994 0.707103 -0.707103 0.00343618)
(0.707107 0.707107 -3.98472e-16 0.00234373 -0.00234373 -0.999995 0.707103 -0.707103 0.00331454)
(0.707107 0.707107 -3.9537e-16 0.00226133 -0.00226133 -0.999995 0.707103 -0.707103 0.00319801)
(0.707107 0.707107 -3.90505e-16 0.00218325 -0.00218325 -0.999995 0.707103 -0.707103 0.00308759)
(0.707107 0.707107 -3.79923e-16 0.00210847 -0.00210847 -0.999996 0.707104 -0.707104 0.00298182)
(0.707107 0.707107 -3.75186e-16 0.00203725 -0.00203725 -0.999996 0.707104 -0.707104 0.00288111)
(0.707107 0.707107 -3.76002e-16 0.00196947 -0.00196947 -0.999996 0.707104 -0.707104 0.00278525)
(0.707107 0.707107 -3.67179e-16 0.00190416 -0.00190416 -0.999996 0.707104 -0.707104 0.00269289)
(0.707107 0.707107 -3.60541e-16 0.00184205 -0.00184205 -0.999997 0.707104 -0.707104 0.00260505)
(0.707107 0.707107 -3.50826e-16 0.0017822 -0.0017822 -0.999997 0.707105 -0.707105 0.00252041)
(0.707107 0.707107 -3.37146e-16 0.00172493 -0.00172493 -0.999997 0.707105 -0.707105 0.00243941)
(0.707107 0.707107 -3.27853e-16 0.00167053 -0.00167053 -0.999997 0.707105 -0.707105 0.00236249)
(0.707107 0.707107 -3.19789e-16 0.00161775 -0.00161775 -0.999997 0.707105 -0.707105 0.00228785)
(0.707107 0.707107 -3.12318e-16 0.0015669 -0.0015669 -0.999998 0.707105 -0.707105 0.00221594)
(0.707107 0.707107 -3.01677e-16 0.00151831 -0.00151831 -0.999998 0.707105 -0.707105 0.00214721)
(0.707107 0.707107 -2.94792e-16 0.00147151 -0.00147151 -0.999998 0.707105 -0.707105 0.00208103)
(0.707107 0.707107 -2.80952e-16 0.00142645 -0.00142645 -0.999998 0.707105 -0.707105 0.0020173)
(0.707107 0.707107 -2.65782e-16 0.00138269 -0.00138269 -0.999998 0.707105 -0.707105 0.00195542)
(0.707107 0.707107 -2.63486e-16 0.00134093 -0.00134093 -0.999998 0.707106 -0.707106 0.00189637)
(0.707107 0.707107 -2.58158e-16 0.00130039 -0.00130039 -0.999998 0.707106 -0.707106 0.00183903)
(0.707107 0.707107 -2.47292e-16 0.00126101 -0.00126101 -0.999998 0.707106 -0.707106 0.00178334)
(0.707107 0.707107 -2.29639e-16 0.00122313 -0.00122313 -0.999999 0.707106 -0.707106 0.00172976)
(0.707107 0.707107 -2.09892e-16 0.00118633 -0.00118633 -0.999999 0.707106 -0.707106 0.00167773)
(0.707107 0.707107 -1.94215e-16 0.00115095 -0.00115095 -0.999999 0.707106 -0.707106 0.00162769)
(0.707107 0.707107 -1.83669e-16 0.00111624 -0.00111624 -0.999999 0.707106 -0.707106 0.0015786)
(0.707107 0.707107 -1.85589e-16 0.00108287 -0.00108287 -0.999999 0.707106 -0.707106 0.00153141)
(0.707107 0.707107 -1.83184e-16 0.0010508 -0.0010508 -0.999999 0.707106 -0.707106 0.00148606)
(0.707107 0.707107 -1.76162e-16 0.00101933 -0.00101933 -0.999999 0.707106 -0.707106 0.00144154)
(0.707107 0.707107 -1.75429e-16 0.000988758 -0.000988758 -0.999999 0.707106 -0.707106 0.00139831)
(0.707107 0.707107 -1.74818e-16 0.000959069 -0.000959069 -0.999999 0.707106 -0.707106 0.00135633)
(0.707107 0.707107 -1.70246e-16 0.000929914 -0.000929914 -0.999999 0.707106 -0.707106 0.0013151)
(0.707107 0.707107 -1.59547e-16 0.000901927 -0.000901927 -0.999999 0.707106 -0.707106 0.00127552)
(0.707107 0.707107 -1.52328e-16 0.00087475 -0.00087475 -0.999999 0.707106 -0.707106 0.00123708)
(0.707107 0.707107 -1.56317e-16 0.000847728 -0.000847728 -0.999999 0.707106 -0.707106 0.00119887)
(0.707107 0.707107 -1.54505e-16 0.000821801 -0.000821801 -0.999999 0.707106 -0.707106 0.0011622)
(0.707107 0.707107 -1.46165e-16 0.00079663 -0.00079663 -0.999999 0.707106 -0.707106 0.00112661)
(0.707107 0.707107 -1.33252e-16 0.000771881 -0.000771881 -0.999999 0.707106 -0.707106 0.0010916)
(0.707107 0.707107 -1.18992e-16 0.000747553 -0.000747553 -0.999999 0.707106 -0.707106 0.0010572)
(0.707107 0.707107 -1.13067e-16 0.000723621 -0.000723621 -0.999999 0.707106 -0.707106 0.00102335)
(0.707107 0.707107 -1.08901e-16 0.000700696 -0.000700696 -1 0.707106 -0.707106 0.000990934)
(0.707107 0.707107 -1.0417e-16 0.000678141 -0.000678141 -1 0.707106 -0.707106 0.000959036)
(0.707107 0.707107 -9.29762e-17 0.000655657 -0.000655657 -1 0.707106 -0.707106 0.000927238)
(0.707107 0.707107 -7.60633e-17 0.00063412 -0.00063412 -1 0.707106 -0.707106 0.000896781)
(0.707107 0.707107 -6.96711e-17 0.000612931 -0.000612931 -1 0.707107 -0.707107 0.000866815)
(0.707107 0.707107 -7.84762e-17 0.000591782 -0.000591782 -1 0.707107 -0.707107 0.000836906)
(0.707107 0.707107 -8.54705e-17 0.000571253 -0.000571253 -1 0.707107 -0.707107 0.000807873)
(0.707107 0.707107 -8.2251e-17 0.000551047 -0.000551047 -1 0.707107 -0.707107 0.000779298)
(0.707107 0.707107 -8.65994e-17 0.000531146 -0.000531146 -1 0.707107 -0.707107 0.000751154)
(0.707107 0.707107 -9.12333e-17 0.000511837 -0.000511837 -1 0.707107 -0.707107 0.000723847)
(0.707107 0.707107 -7.75449e-17 0.00049254 -0.00049254 -1 0.707107 -0.707107 0.000696557)
(0.707107 0.707107 -6.02655e-17 0.00047381 -0.00047381 -1 0.707107 -0.707107 0.000670069)
(0.707107 0.707107 -5.45932e-17 0.000455086 -0.000455086 -1 0.707107 -0.707107 0.000643589)
(0.707107 0.707107 -5.69474e-17 0.000436639 -0.000436639 -1 0.707107 -0.707107 0.0006175)
(0.707107 0.707107 -5.28553e-17 0.000418735 -0.000418735 -1 0.707107 -0.707107 0.000592181)
(0.707107 0.707107 -5.26834e-17 0.000400823 -0.000400823 -1 0.707107 -0.707107 0.000566849)
(0.707107 0.707107 -4.16803e-17 0.000383168 -0.000383168 -1 0.707107 -0.707107 0.000541882)
(0.707107 0.707107 -2.6078e-17 0.000365502 -0.000365502 -1 0.707107 -0.707107 0.000516898)
(0.707107 0.707107 -2.84199e-17 0.000348352 -0.000348352 -1 0.707107 -0.707107 0.000492644)
(0.707107 0.707107 -2.82117e-17 0.000331445 -0.000331445 -1 0.707107 -0.707107 0.000468734)
(0.707107 0.707107 -2.36459e-17 0.000314515 -0.000314515 -1 0.707107 -0.707107 0.000444791)
(0.707107 0.707107 -3.1428e-17 0.000297559 -0.000297559 -1 0.707107 -0.707107 0.000420812)
(0.707107 0.707107 -4.20113e-17 0.000280837 -0.000280837 -1 0.707107 -0.707107 0.000397163)
(0.707107 0.707107 -4.19778e-17 0.0002646 -0.0002646 -1 0.707107 -0.707107 0.0003742)
(0.707107 0.707107 -3.84639e-17 0.00024833 -0.00024833 -1 0.707107 -0.707107 0.000351192)
(0.707107 0.707107 -3.96971e-17 0.000231772 -0.000231772 -1 0.707107 -0.707107 0.000327775)
(0.707107 0.707107 -3.61236e-17 0.000215684 -0.000215684 -1 0.707107 -0.707107 0.000305023)
(0.707107 0.707107 -1.91351e-17 0.000199561 -0.000199561 -1 0.707107 -0.707107 0.000282222)
(0.707107 0.707107 -2.54583e-17 0.000183398 -0.000183398 -1 0.707107 -0.707107 0.000259363)
(0.707107 0.707107 -3.87186e-17 0.000167692 -0.000167692 -1 0.707107 -0.707107 0.000237152)
(0.707107 0.707107 -3.98314e-17 0.000151696 -0.000151696 -1 0.707107 -0.707107 0.00021453)
(0.707107 0.707107 -3.72161e-17 0.00013566 -0.00013566 -1 0.707107 -0.707107 0.000191852)
(0.707107 0.707107 -2.20283e-17 0.000119582 -0.000119582 -1 0.707107 -0.707107 0.000169114)
(0.707107 0.707107 -3.36488e-18 0.000103941 -0.000103941 -1 0.707107 -0.707107 0.000146995)
(0.707107 0.707107 2.06435e-18 8.80176e-05 -8.80176e-05 -1 0.707107 -0.707107 0.000124476)
(0.707107 0.707107 2.32247e-18 7.20436e-05 -7.20436e-05 -1 0.707107 -0.707107 0.000101885)
(0.707107 0.707107 5.17304e-18 5.62635e-05 -5.62635e-05 -1 0.707107 -0.707107 7.95686e-05)
(0.707107 0.707107 -1.31724e-18 4.01964e-05 -4.01964e-05 -1 0.707107 -0.707107 5.68463e-05)
(0.707107 0.707107 6.53541e-18 2.40832e-05 -2.40832e-05 -1 0.707107 -0.707107 3.40587e-05)
(0.707107 0.707107 7.41679e-18 7.9195e-06 -7.9195e-06 -1 0.707107 -0.707107 1.11999e-05)
(0.707107 0.707107 2.94568e-14 0.673728 -0.673728 -0.303614 0.214688 -0.214688 0.952795)
(0.707107 0.707107 -1.38936e-16 0.5 -0.5 -0.707107 0.5 -0.5 0.707107)
(0.707107 0.707107 5.91791e-14 0.355023 -0.355023 -0.864822 0.611521 -0.611521 0.502079)
(0.707107 0.707107 2.3158e-14 0.262742 -0.262742 -0.928404 0.656481 -0.656481 0.371573)
(0.707107 0.707107 6.66763e-15 0.202654 -0.202654 -0.958051 0.677445 -0.677445 0.286596)
(0.707107 0.707107 5.3098e-16 0.161198 -0.161198 -0.973668 0.688488 -0.688488 0.227969)
(0.707107 0.707107 -1.70996e-15 0.13127 -0.13127 -0.982617 0.694815 -0.694815 0.185644)
(0.707107 0.707107 -2.3794e-15 0.10896 -0.10896 -0.988056 0.698661 -0.698661 0.154093)
(0.707107 0.707107 -2.444e-15 0.0919277 -0.0919277 -0.991513 0.701106 -0.701106 0.130005)
(0.707107 0.707107 -2.29108e-15 0.0786716 -0.0786716 -0.993792 0.702717 -0.702717 0.111258)
(0.707107 0.707107 -2.07004e-15 0.0681804 -0.0681804 -0.995341 0.703812 -0.703812 0.0964216)
(0.707107 0.707107 -1.85271e-15 0.0597478 -0.0597478 -0.996424 0.704578 -0.704578 0.0844961)
(0.707107 0.707107 -1.65632e-15 0.0528729 -0.0528729 -0.997201 0.705127 -0.705127 0.0747736)
(0.707107 0.707107 -1.48425e-15 0.0471939 -0.0471939 -0.99777 0.70553 -0.70553 0.0667423)
(0.707107 0.707107 -1.33448e-15 0.042445 -0.042445 -0.998197 0.705832 -0.705832 0.0600263)
(0.707107 0.707107 -1.20511e-15 0.0384305 -0.0384305 -0.998522 0.706062 -0.706062 0.0543489)
(0.707107 0.707107 -1.10004e-15 0.035003 -0.035003 -0.998774 0.70624 -0.70624 0.0495018)
(0.707107 0.707107 -1.01296e-15 0.0320486 -0.0320486 -0.998972 0.70638 -0.70638 0.0453236)
(0.707107 0.707107 -9.24391e-16 0.0294808 -0.0294808 -0.999131 0.706492 -0.706492 0.0416922)
(0.707107 0.707107 -8.46856e-16 0.0272327 -0.0272327 -0.999258 0.706582 -0.706582 0.0385128)
(0.707107 0.707107 -7.91187e-16 0.0252516 -0.0252516 -0.999362 0.706656 -0.706656 0.0357111)
(0.707107 0.707107 -7.39601e-16 0.0234941 -0.0234941 -0.999448 0.706716 -0.706716 0.0332256)
(0.707107 0.707107 -6.86437e-16 0.0219253 -0.0219253 -0.999519 0.706767 -0.706767 0.0310071)
(0.707107 0.707107 -6.46793e-16 0.0205186 -0.0205186 -0.999579 0.706809 -0.706809 0.0290177)
(0.707107 0.707107 -6.13429e-16 0.0192521 -0.0192521 -0.999629 0.706845 -0.706845 0.0272265)
(0.707107 0.707107 -5.61688e-16 0.018106 -0.018106 -0.999672 0.706875 -0.706875 0.0256058)
(0.707107 0.707107 -5.26553e-16 0.0170639 -0.0170639 -0.999709 0.706901 -0.706901 0.0241319)
(0.707107 0.707107 -5.02421e-16 0.0161135 -0.0161135 -0.99974 0.706923 -0.706923 0.0227879)
(0.707107 0.707107 -4.73741e-16 0.0152447 -0.0152447 -0.999768 0.706942 -0.706942 0.0215593)
(0.707107 0.707107 -4.51139e-16 0.0144465 -0.0144465 -0.999791 0.706959 -0.706959 0.0204304)
(0.707107 0.707107 -4.29825e-16 0.0137117 -0.0137117 -0.999812 0.706974 -0.706974 0.0193913)
(0.707107 0.707107 -4.16901e-16 0.0130329 -0.0130329 -0.99983 0.706987 -0.706987 0.0184313)
(0.707107 0.707107 -3.96963e-16 0.0124052 -0.0124052 -0.999846 0.706998 -0.706998 0.0175436)
(0.707107 0.707107 -3.78269e-16 0.0118231 -0.0118231 -0.99986 0.707008 -0.707008 0.0167203)
(0.707107 0.707107 -3.65994e-16 0.0112809 -0.0112809 -0.999873 0.707017 -0.707017 0.0159536)
(0.707107 0.707107 -3.45597e-16 0.0107761 -0.0107761 -0.999884 0.707025 -0.707025 0.0152397)
(0.707107 0.707107 -3.26857e-16 0.0103047 -0.0103047 -0.999894 0.707032 -0.707032 0.014573)
(0.707107 0.707107 -3.10701e-16 0.00986319 -0.00986319 -0.999903 0.707038 -0.707038 0.0139487)
(0.707107 0.707107 -2.95814e-16 0.00944917 -0.00944917 -0.999911 0.707044 -0.707044 0.0133631)
(0.707107 0.707107 -3.0051e-16 0.00906127 -0.00906127 -0.999918 0.707049 -0.707049 0.0128146)
(0.707107 0.707107 -2.95325e-16 0.00869587 -0.00869587 -0.999924 0.707053 -0.707053 0.0122978)
(0.707107 0.707107 -2.86976e-16 0.00835121 -0.00835121 -0.99993 0.707057 -0.707057 0.0118104)
(0.707107 0.707107 -2.83269e-16 0.0080269 -0.0080269 -0.999936 0.707061 -0.707061 0.0113517)
(0.707107 0.707107 -2.72585e-16 0.00771966 -0.00771966 -0.99994 0.707065 -0.707065 0.0109173)
(0.707107 0.707107 -2.71354e-16 0.00742944 -0.00742944 -0.999945 0.707068 -0.707068 0.0105068)
(0.707107 0.707107 -2.59427e-16 0.00715528 -0.00715528 -0.999949 0.707071 -0.707071 0.0101191)
(0.707107 0.707107 -2.55709e-16 0.00689386 -0.00689386 -0.999952 0.707073 -0.707073 0.00974939)
(0.707107 0.707107 -2.58202e-16 0.00664628 -0.00664628 -0.999956 0.707076 -0.707076 0.00939925)
(0.707107 0.707107 -2.54115e-16 0.00641136 -0.00641136 -0.999959 0.707078 -0.707078 0.00906703)
(0.707107 0.707107 -2.48324e-16 0.0061865 -0.0061865 -0.999962 0.70708 -0.70708 0.00874903)
(0.707107 0.707107 -2.43522e-16 0.00597334 -0.00597334 -0.999964 0.707082 -0.707082 0.00844758)
(0.707107 0.707107 -2.4534e-16 0.00576998 -0.00576998 -0.999967 0.707083 -0.707083 0.00815998)
(0.707107 0.707107 -2.38498e-16 0.00557498 -0.00557498 -0.999969 0.707085 -0.707085 0.00788422)
(0.707107 0.707107 -2.25277e-16 0.0053895 -0.0053895 -0.999971 0.707086 -0.707086 0.0076219)
(0.707107 0.707107 -2.20126e-16 0.00521175 -0.00521175 -0.999973 0.707088 -0.707088 0.00737053)
(0.707107 0.707107 -2.12084e-16 0.00504089 -0.00504089 -0.999975 0.707089 -0.707089 0.0071289)
(0.707107 0.707107 -2.06208e-16 0.00487823 -0.00487823 -0.999976 0.70709 -0.70709 0.00689886)
(0.707107 0.707107 -2.03428e-16 0.00472196 -0.00472196 -0.999978 0.707091 -0.707091 0.00667786)
(0.707107 0.707107 -1.96504e-16 0.0045714 -0.0045714 -0.999979 0.707092 -0.707092 0.00646493)
(0.707107 0.707107 -1.88505e-16 0.00442732 -0.00442732 -0.99998 0.707093 -0.707093 0.00626118)
(0.707107 0.707107 -1.82092e-16 0.00428856 -0.00428856 -0.999982 0.707094 -0.707094 0.00606494)
(0.707107 0.707107 -1.77784e-16 0.00415495 -0.00415495 -0.999983 0.707095 -0.707095 0.00587598)
(0.707107 0.707107 -1.66387e-16 0.00402631 -0.00402631 -0.999984 0.707095 -0.707095 0.00569406)
(0.707107 0.707107 -1.63745e-16 0.00390206 -0.00390206 -0.999985 0.707096 -0.707096 0.00551835)
(0.707107 0.707107 -1.69234e-16 0.00378247 -0.00378247 -0.999986 0.707097 -0.707097 0.00534923)
(0.707107 0.707107 -1.545e-16 0.00366743 -0.00366743 -0.999987 0.707097 -0.707097 0.00518653)
(0.707107 0.707107 -1.35893e-16 0.00355589 -0.00355589 -0.999987 0.707098 -0.707098 0.00502879)
(0.707107 0.707107 -1.32045e-16 0.00344777 -0.00344777 -0.999988 0.707098 -0.707098 0.00487588)
(0.707107 0.707107 -1.25335e-16 0.00334386 -0.00334386 -0.999989 0.707099 -0.707099 0.00472893)
(0.707107 0.707107 -1.09458e-16 0.00324311 -0.00324311 -0.999989 0.707099 -0.707099 0.00458644)
(0.707107 0.707107 -9.7807e-17 0.00314506 -0.00314506 -0.99999 0.7071 -0.7071 0.00444779)
(0.707107 0.707107 -1.11361e-16 0.00305045 -0.00305045 -0.999991 0.7071 -0.7071 0.00431399)
(0.707107 0.707107 -1.16304e-16 0.00295837 -0.00295837 -0.999991 0.707101 -0.707101 0.00418377)
(0.707107 0.707107 -1.00062e-16 0.00286915 -0.00286915 -0.999992 0.707101 -0.707101 0.00405758)
(0.707107 0.707107 -9.92456e-17 0.00278397 -0.00278397 -0.999992 0.707101 -0.707101 0.00393713)
(0.707107 0.707107 -1.02692e-16 0.00270064 -0.00270064 -0.999993 0.707102 -0.707102 0.00381928)
(0.707107 0.707107 -9.98145e-17 0.00261504 -0.00261504 -0.999993 0.707102 -0.707102 0.00369822)
(0.707107 0.707107 -9.50747e-17 0.00253611 -0.00253611 -0.999994 0.707102 -0.707102 0.0035866)
(0.707107 0.707107 -9.47048e-17 0.00245857 -0.00245857 -0.999994 0.707103 -0.707103 0.00347694)
(0.707107 0.707107 -9.26164e-17 0.00238222 -0.00238222 -0.999994 0.707103 -0.707103 0.00336897)
(0.707107 0.707107 -8.86796e-17 0.00231114 -0.00231114 -0.999995 0.707103 -0.707103 0.00326845)
(0.707107 0.707107 -9.21773e-17 0.00224118 -0.00224118 -0.999995 0.707103 -0.707103 0.00316951)
(0.707107 0.707107 -7.90779e-17 0.00216844 -0.00216844 -0.999995 0.707103 -0.707103 0.00306664)
(0.707107 0.707107 -6.57466e-17 0.0021007 -0.0021007 -0.999996 0.707104 -0.707104 0.00297084)
(0.707107 0.707107 -6.75901e-17 0.00203407 -0.00203407 -0.999996 0.707104 -0.707104 0.00287662)
(0.707107 0.707107 -7.11263e-17 0.00196841 -0.00196841 -0.999996 0.707104 -0.707104 0.00278375)
(0.707107 0.707107 -6.90878e-17 0.00190383 -0.00190383 -0.999996 0.707104 -0.707104 0.00269243)
(0.707107 0.707107 -5.84697e-17 0.00184017 -0.00184017 -0.999997 0.707104 -0.707104 0.0026024)
(0.707107 0.707107 -4.35362e-17 0.00178128 -0.00178128 -0.999997 0.707105 -0.707105 0.00251911)
(0.707107 0.707107 -4.00654e-17 0.00171952 -0.00171952 -0.999997 0.707105 -0.707105 0.00243176)
(0.707107 0.707107 -5.26728e-17 0.00166238 -0.00166238 -0.999997 0.707105 -0.707105 0.00235096)
(0.707107 0.707107 -5.59356e-17 0.00160243 -0.00160243 -0.999997 0.707105 -0.707105 0.00226618)
(0.707107 0.707107 -5.59502e-17 0.00154699 -0.00154699 -0.999998 0.707105 -0.707105 0.00218778)
(0.707107 0.707107 -6.09921e-17 0.00149238 -0.00149238 -0.999998 0.707105 -0.707105 0.00211054)
(0.707107 0.707107 -6.50502e-17 0.00143496 -0.00143496 -0.999998 0.707105 -0.707105 0.00202933)
(0.707107 0.707107 -6.25604e-17 0.00138193 -0.00138193 -0.999998 0.707105 -0.707105 0.00195435)
(0.707107 0.707107 -5.33307e-17 0.00132966 -0.00132966 -0.999998 0.707106 -0.707106 0.00188042)
(0.707107 0.707107 -4.15579e-17 0.00127463 -0.00127463 -0.999998 0.707106 -0.707106 0.0018026)
(0.707107 0.707107 -4.24107e-17 0.00122383 -0.00122383 -0.999999 0.707106 -0.707106 0.00173076)
(0.707107 0.707107 -4.42887e-17 0.00117378 -0.00117378 -0.999999 0.707106 -0.707106 0.00165998)
(0.707107 0.707107 -4.7563e-17 0.00112439 -0.00112439 -0.999999 0.707106 -0.707106 0.00159013)
(0.707107 0.707107 -3.92622e-17 0.00107573 -0.00107573 -0.999999 0.707106 -0.707106 0.00152131)
(0.707107 0.707107 -2.80182e-17 0.0010243 -0.0010243 -0.999999 0.707106 -0.707106 0.00144858)
(0.707107 0.707107 -3.52101e-17 0.000976968 -0.000976968 -0.999999 0.707106 -0.707106 0.00138164)
(0.707107 0.707107 -2.16462e-17 0.000926931 -0.000926931 -0.999999 0.707106 -0.707106 0.00131088)
(0.707107 0.707107 -1.3632e-17 0.000880856 -0.000880856 -0.999999 0.707106 -0.707106 0.00124572)
(0.707107 0.707107 -3.15915e-17 0.000835441 -0.000835441 -0.999999 0.707106 -0.707106 0.00118149)
(0.707107 0.707107 -4.24101e-17 0.000787315 -0.000787315 -0.999999 0.707106 -0.707106 0.00111343)
(0.707107 0.707107 -3.50089e-17 0.00073984 -0.00073984 -0.999999 0.707106 -0.707106 0.00104629)
(0.707107 0.707107 -2.67033e-17 0.000692968 -0.000692968 -1 0.707106 -0.707106 0.000980005)
(0.707107 0.707107 -2.89196e-17 0.00064993 -0.00064993 -1 0.707106 -0.707106 0.000919139)
(0.707107 0.707107 -2.95038e-17 0.000604261 -0.000604261 -1 0.707107 -0.707107 0.000854555)
(0.707107 0.707107 -1.75613e-17 0.000559153 -0.000559153 -1 0.707107 -0.707107 0.000790761)
(0.707107 0.707107 -2.55015e-17 0.000514631 -0.000514631 -1 0.707107 -0.707107 0.000727798)
(0.707107 0.707107 -3.74087e-17 0.000470654 -0.000470654 -1 0.707107 -0.707107 0.000665605)
(0.707107 0.707107 -3.12157e-17 0.000424131 -0.000424131 -1 0.707107 -0.707107 0.000599812)
(0.707107 0.707107 -2.74922e-17 0.000378145 -0.000378145 -1 0.707107 -0.707107 0.000534778)
(0.707107 0.707107 -2.32923e-17 0.000335829 -0.000335829 -1 0.707107 -0.707107 0.000474933)
(0.707107 0.707107 -4.16826e-18 0.000290955 -0.000290955 -1 0.707107 -0.707107 0.000411472)
(0.707107 0.707107 2.68143e-18 0.000246617 -0.000246617 -1 0.707107 -0.707107 0.000348769)
(0.707107 0.707107 -2.02735e-18 0.000202807 -0.000202807 -1 0.707107 -0.707107 0.000286812)
(0.707107 0.707107 2.87777e-18 0.00015651 -0.00015651 -1 0.707107 -0.707107 0.000221338)
(0.707107 0.707107 -4.49354e-18 0.000113716 -0.000113716 -1 0.707107 -0.707107 0.000160819)
(0.707107 0.707107 3.93324e-18 6.84813e-05 -6.84813e-05 -1 0.707107 -0.707107 9.68472e-05)
(0.707107 0.707107 6.70785e-18 2.07599e-05 -2.07599e-05 -1 0.707107 -0.707107 2.93589e-05)
(0.707107 0.707107 1.87255e-14 0.694953 -0.694953 -0.184606 0.130536 -0.130536 0.982813)
(0.707107 0.707107 -5.94027e-14 0.611521 -0.611521 -0.502079 0.355023 -0.355023 0.864822)
(0.707107 0.707107 -9.3303e-17 0.5 -0.5 -0.707107 0.5 -0.5 0.707107)
(0.707107 0.707107 1.45452e-14 0.40078 -0.40078 -0.823863 0.582559 -0.582559 0.566789)
(0.707107 0.707107 1.20987e-14 0.323102 -0.323102 -0.8895 0.628971 -0.628971 0.456935)
(0.707107 0.707107 7.56757e-15 0.263743 -0.263743 -0.927836 0.656079 -0.656079 0.372988)
(0.707107 0.707107 4.17003e-15 0.218331 -0.218331 -0.951138 0.672556 -0.672556 0.308766)
(0.707107 0.707107 2.10916e-15 0.18331 -0.18331 -0.965813 0.682933 -0.682933 0.25924)
(0.707107 0.707107 9.67322e-16 0.155994 -0.155994 -0.975362 0.689685 -0.689685 0.220609)
(0.707107 0.707107 3.44705e-16 0.13441 -0.13441 -0.981768 0.694215 -0.694215 0.190084)
(0.707107 0.707107 1.80593e-18 0.117127 -0.117127 -0.986186 0.697339 -0.697339 0.165643)
(0.707107 0.707107 -1.49889e-16 0.103099 -0.103099 -0.989314 0.69955 -0.69955 0.145804)
(0.707107 0.707107 -2.17744e-16 0.091567 -0.091567 -0.99158 0.701153 -0.701153 0.129495)
(0.707107 0.707107 -2.46683e-16 0.0819732 -0.0819732 -0.993258 0.702339 -0.702339 0.115928)
(0.707107 0.707107 -2.36683e-16 0.0739025 -0.0739025 -0.994523 0.703234 -0.703234 0.104514)
(0.707107 0.707107 -2.16575e-16 0.0670437 -0.0670437 -0.995495 0.703921 -0.703921 0.0948141)
(0.707107 0.707107 -1.96406e-16 0.0611585 -0.0611585 -0.996253 0.704457 -0.704457 0.0864912)
(0.707107 0.707107 -1.79458e-16 0.0560665 -0.0560665 -0.996852 0.704881 -0.704881 0.07929)
(0.707107 0.707107 -1.48888e-16 0.0516265 -0.0516265 -0.997331 0.70522 -0.70522 0.0730109)
(0.707107 0.707107 -1.275e-16 0.0477281 -0.0477281 -0.997719 0.705494 -0.705494 0.0674977)
(0.707107 0.707107 -1.28225e-16 0.0442827 -0.0442827 -0.998037 0.705719 -0.705719 0.0626252)
(0.707107 0.707107 -1.11858e-16 0.0412204 -0.0412204 -0.998299 0.705904 -0.705904 0.0582944)
(0.707107 0.707107 -8.10868e-17 0.0384798 -0.0384798 -0.998518 0.706059 -0.706059 0.0544186)
(0.707107 0.707107 -6.12083e-17 0.0360172 -0.0360172 -0.998702 0.706189 -0.706189 0.050936)
(0.707107 0.707107 -4.55023e-17 0.0337993 -0.0337993 -0.998857 0.706299 -0.706299 0.0477994)
(0.707107 0.707107 -1.98302e-17 0.0317862 -0.0317862 -0.998989 0.706392 -0.706392 0.0449524)
(0.707107 0.707107 -5.04054e-18 0.0299631 -0.0299631 -0.999102 0.706472 -0.706472 0.0423743)
(0.707107 0.707107 1.08278e-17 0.028289 -0.028289 -0.999199 0.706541 -0.706541 0.0400067)
(0.707107 0.707107 1.61716e-17 0.0267543 -0.0267543 -0.999284 0.7066 -0.7066 0.0378363)
(0.707107 0.707107 9.75526e-18 0.0253567 -0.0253567 -0.999357 0.706652 -0.706652 0.0358597)
(0.707107 0.707107 1.38334e-17 0.0240634 -0.0240634 -0.999421 0.706697 -0.706697 0.0340308)
(0.707107 0.707107 1.98209e-17 0.0228595 -0.0228595 -0.999477 0.706737 -0.706737 0.0323283)
(0.707107 0.707107 4.36341e-17 0.021755 -0.021755 -0.999527 0.706772 -0.706772 0.0307662)
(0.707107 0.707107 6.27437e-17 0.0207288 -0.0207288 -0.99957 0.706803 -0.706803 0.029315)
(0.707107 0.707107 6.82535e-17 0.0197685 -0.0197685 -0.999609 0.70683 -0.70683 0.0279569)
(0.707107 0.707107 8.13094e-17 0.0188857 -0.0188857 -0.999643 0.706855 -0.706855 0.0267084)
(0.707107 0.707107 9.45592e-17 0.0180465 -0.0180465 -0.999674 0.706876 -0.706876 0.0255216)
(0.707107 0.707107 8.9824e-17 0.0172629 -0.0172629 -0.999702 0.706896 -0.706896 0.0244135)
(0.707107 0.707107 7.76009e-17 0.0165396 -0.0165396 -0.999726 0.706913 -0.706913 0.0233905)
(0.707107 0.707107 8.92258e-17 0.015852 -0.015852 -0.999749 0.706929 -0.706929 0.0224182)
(0.707107 0.707107 1.08781e-16 0.0152057 -0.0152057 -0.999769 0.706943 -0.706943 0.0215041)
(0.707107 0.707107 1.23267e-16 0.0145986 -0.0145986 -0.999787 0.706956 -0.706956 0.0206455)
(0.707107 0.707107 1.30546e-16 0.014029 -0.014029 -0.999803 0.706968 -0.706968 0.0198399)
(0.707107 0.707107 1.29031e-16 0.0134814 -0.0134814 -0.999818 0.706978 -0.706978 0.0190655)
(0.707107 0.707107 1.32704e-16 0.0129684 -0.0129684 -0.999832 0.706988 -0.706988 0.0183401)
(0.707107 0.707107 1.36826e-16 0.0124886 -0.0124886 -0.999844 0.706996 -0.706996 0.0176615)
(0.707107 0.707107 1.41223e-16 0.0120209 -0.0120209 -0.999855 0.707005 -0.707005 0.0170001)
(0.707107 0.707107 1.43348e-16 0.0115842 -0.0115842 -0.999866 0.707012 -0.707012 0.0163825)
(0.707107 0.707107 1.31495e-16 0.0111709 -0.0111709 -0.999875 0.707019 -0.707019 0.015798)
(0.707107 0.707107 1.31093e-16 0.01078 -0.01078 -0.999884 0.707025 -0.707025 0.0152453)
(0.707107 0.707107 1.40208e-16 0.0104046 -0.0104046 -0.999892 0.70703 -0.70703 0.0147144)
(0.707107 0.707107 1.32789e-16 0.0100378 -0.0100378 -0.999899 0.707036 -0.707036 0.0141956)
(0.707107 0.707107 1.34209e-16 0.00969762 -0.00969762 -0.999906 0.70704 -0.70704 0.0137145)
(0.707107 0.707107 1.43982e-16 0.00937097 -0.00937097 -0.999912 0.707045 -0.707045 0.0132525)
(0.707107 0.707107 1.3781e-16 0.00905747 -0.00905747 -0.999918 0.707049 -0.707049 0.0128092)
(0.707107 0.707107 1.31237e-16 0.00875653 -0.00875653 -0.999923 0.707053 -0.707053 0.0123836)
(0.707107 0.707107 1.23754e-16 0.00846788 -0.00846788 -0.999928 0.707056 -0.707056 0.0119754)
(0.707107 0.707107 1.09811e-16 0.00819688 -0.00819688 -0.999933 0.707059 -0.707059 0.0115921)
(0.707107 0.707107 1.18756e-16 0.00793131 -0.00793131 -0.999937 0.707062 -0.707062 0.0112166)
(0.707107 0.707107 1.23942e-16 0.00767672 -0.00767672 -0.999941 0.707065 -0.707065 0.0108565)
(0.707107 0.707107 1.10935e-16 0.00743292 -0.00743292 -0.999945 0.707068 -0.707068 0.0105117)
(0.707107 0.707107 1.01221e-16 0.00719944 -0.00719944 -0.999948 0.70707 -0.70707 0.0101815)
(0.707107 0.707107 1.03094e-16 0.00697042 -0.00697042 -0.999951 0.707072 -0.707072 0.00985766)