/*--------------------------------*- C++ -*----------------------------------*\
  =========                 |
  \\      /  F ield         | OpenFOAM: The Open Source CFD Toolbox
   \\    /   O peration     | Website:  https://openfoam.org
    \\  /    A nd           | Version:  6
     \\/     M anipulation  |
\*---------------------------------------------------------------------------*/
FoamFile
{
    version     2.0;
    format      ascii;
    class       volSymmTensorField;
    location    "99.27";
    object      turbulenceProperties:R;
}
// * * * * * * * * * * * * * * * * * * * * * * * * * * * * * * * * * * * * * //

dimensions      [0 2 -2 0 0 0 0];

internalField   nonuniform List<symmTensor> 
15625
(
(2.754646194842414e-07 -8.850446737365499e-11 -8.8504467373655e-11 6.879799999564487e-11 3.560420155734652e-12 6.879799999564497e-11)
(1.0469634966863496e-06 -2.152674975843225e-09 -2.4899805961688045e-10 1.6750330299290988e-09 -1.78280392156372e-10 2.3085134622238122e-10)
(1.5709083428239846e-06 -6.8395136595136946e-09 -3.145049473480876e-10 1.0162618437955158e-08 -1.1424328430424805e-09 4.796400697905848e-10)
(1.94668378590494e-06 -1.2195067607038008e-08 -4.880119110231277e-10 3.39928311015209e-08 -3.298946356935709e-09 7.692208878570608e-10)
(2.3004430732616335e-06 -1.7730357485035446e-08 -7.551073820850398e-10 8.277709167391966e-08 -6.6905432736332045e-09 1.0659270294631752e-09)
(2.71111699700847e-06 -2.5401222176431707e-08 -1.1454834305488855e-09 1.6511161999796964e-07 -1.1115635727129755e-08 1.3515931965250296e-09)
(3.2255953548249944e-06 -3.7889342390489156e-08 -1.876316845102068e-09 2.8742532793901423e-07 -1.627114341733323e-08 1.6236962656197474e-09)
(3.873981029083119e-06 -5.709245006751507e-08 -3.393799552987042e-09 4.531996353848307e-07 -2.178981970911305e-08 1.8822344431451536e-09)
(4.676502802748799e-06 -8.227108467051243e-08 -6.2644500282823815e-09 6.628476793418011e-07 -2.7322932728614192e-08 2.13450742250127e-09)
(5.644969311829931e-06 -1.0951286873941455e-07 -1.099765831837001e-08 9.140538835111216e-07 -3.258506657928568e-08 2.3880779390300424e-09)
(6.781997164010092e-06 -1.3195237255358308e-07 -1.7891096147795648e-08 1.2028126337547992e-06 -3.741146506593381e-08 2.6498323329710876e-09)
(8.080852754653463e-06 -1.4092060462844145e-07 -2.6948835308189006e-08 1.524506616540586e-06 -4.174489681676909e-08 2.9225285232405845e-09)
(9.523709950984259e-06 -1.274522395346351e-07 -3.782779843604408e-08 1.8743688206081637e-06 -4.558370245873499e-08 3.1997974267368817e-09)
(1.1084144218689594e-05 -8.427717156502736e-08 -4.994676720044018e-08 2.2481635184177384e-06 -4.89492845972112e-08 3.472005527762364e-09)
(1.2731255151953514e-05 -6.444921276856968e-09 -6.262084451676377e-08 2.6422337666833135e-06 -5.185235683907257e-08 3.728527969182675e-09)
(1.4430494088922158e-05 1.076636928870201e-07 -7.51467073720954e-08 3.053069908474426e-06 -5.4259657271990026e-08 3.958874179914397e-09)
(1.614784905516589e-05 2.5644672719052247e-07 -8.691522161863269e-08 3.4770632012724566e-06 -5.612656835358349e-08 4.156564333794456e-09)
(1.7851765193929503e-05 4.358253323025931e-07 -9.743876697536262e-08 3.910610003305587e-06 -5.74058736587641e-08 4.3192436879763016e-09)
(1.9516138135583115e-05 6.397121199061656e-07 -1.0646069571844834e-07 4.349676877835726e-06 -5.8056714060080454e-08 4.449757420800582e-09)
(2.1118714837129658e-05 8.610933718171577e-07 -1.1383924354852313e-07 4.790125315817363e-06 -5.8061191412547103e-08 4.552981288865915e-09)
(2.264335470750333e-05 1.092392547425958e-06 -1.1954429702517434e-07 5.228023516419466e-06 -5.745521850943475e-08 4.6346504546438665e-09)
(2.407768610495443e-05 1.326145257652602e-06 -1.236381503105422e-07 5.659432435781885e-06 -5.627938976694183e-08 4.700239491654921e-09)
(2.5415803456298532e-05 1.5555860827485786e-06 -1.2631180508133124e-07 6.080867589712109e-06 -5.4567288417949165e-08 4.754598940701245e-09)
(2.665379360574992e-05 1.774626344252679e-06 -1.2776478617764467e-07 6.48886315336148e-06 -5.237569771605163e-08 4.803354759866726e-09)
(2.7791691393376093e-05 1.97838052604898e-06 -1.2819628866274608e-07 6.880603099096035e-06 -4.978927582544168e-08 4.853195353652706e-09)
(2.8831661089708853e-05 2.162928618768256e-06 -1.2782314140698377e-07 7.253694914041801e-06 -4.6900022129881435e-08 4.90918148600803e-09)
(2.9779193486010932e-05 2.3256263177142926e-06 -1.268816222463211e-07 7.606588455905905e-06 -4.380376400232608e-08 4.974380551848436e-09)
(3.0640468579280925e-05 2.464633653410266e-06 -1.2555985988025902e-07 7.938207554695369e-06 -4.0588428702840355e-08 5.050496878717968e-09)
(3.14230838089663e-05 2.57918517932439e-06 -1.239829346628844e-07 8.248325453846398e-06 -3.7328385746553137e-08 5.137725922500341e-09)
(3.213500771479212e-05 2.6690883316124448e-06 -1.2229900363736364e-07 8.536877518110525e-06 -3.409005217172591e-08 5.236612916163038e-09)
(3.278589751075183e-05 2.7351366681684413e-06 -1.2069271418532718e-07 8.804514082342131e-06 -3.092218831922547e-08 5.348531560227128e-09)
(3.338451259805519e-05 2.7787309160672363e-06 -1.1932006825994054e-07 9.052026270108788e-06 -2.788317682450565e-08 5.474302130045241e-09)
(3.3938509938595744e-05 2.80257237785217e-06 -1.1825800701268837e-07 9.280968123360492e-06 -2.5047061971251142e-08 5.613556616276205e-09)
(3.445526956976099e-05 2.809470100874584e-06 -1.1755268295569363e-07 9.493244077407122e-06 -2.2479811300839408e-08 5.765420818104157e-09)
(3.494039832654038e-05 2.8017855587855133e-06 -1.1717109588304005e-07 9.69125898595701e-06 -2.0208395438596775e-08 5.927553214319461e-09)
(3.539931206625139e-05 2.781735676864419e-06 -1.1706258932159877e-07 9.877629147318074e-06 -1.8244482548498315e-08 6.097447699030622e-09)
(3.5836403842175135e-05 2.750817636564152e-06 -1.1719139309193992e-07 1.0054544654625566e-05 -1.655911702641563e-08 6.2738092357314596e-09)
(3.625586538706064e-05 2.7102040503676784e-06 -1.1752839495724854e-07 1.0224102341309115e-05 -1.5104907816423366e-08 6.45600107691583e-09)
(3.666160871009324e-05 2.6608231206451727e-06 -1.1805472615164531e-07 1.0388017012468727e-05 -1.3866859516008859e-08 6.644369419949319e-09)
(3.705741329823093e-05 2.603362014985427e-06 -1.1876127440829278e-07 1.054769441838404e-05 -1.2860290441295815e-08 6.840236785143391e-09)
(3.7446981789016005e-05 2.5383763578706108e-06 -1.1963808497305842e-07 1.0704523308006528e-05 -1.2079784781724876e-08 7.043288550064759e-09)
(3.78340938719618e-05 2.4660804444950994e-06 -1.2067365680094862e-07 1.0859978034333362e-05 -1.1471865940849317e-08 7.249776689464839e-09)
(3.8222413900726546e-05 2.3867225374853303e-06 -1.2185964266480072e-07 1.101529787991694e-05 -1.097339732740091e-08 7.455910306710551e-09)
(3.861526047401384e-05 2.3008001424943623e-06 -1.232115134175281e-07 1.1170443134309281e-05 -1.0507212196619161e-08 7.661247960813805e-09)
(3.901562067442494e-05 2.2089494365101183e-06 -1.2475249675403305e-07 1.1324820280384917e-05 -9.99209972754196e-09 7.866554455507067e-09)
(3.942421973335667e-05 2.1118339750299955e-06 -1.2648439861178355e-07 1.1477668871990652e-05 -9.405417513135045e-09 8.073978123317038e-09)
(3.983960078001442e-05 2.010103713702662e-06 -1.2838743926334892e-07 1.1628121854457307e-05 -8.785335801629978e-09 8.287192866916993e-09)
(4.0261001168622795e-05 1.9046322716559544e-06 -1.304643085629924e-07 1.177562547604036e-05 -8.18548797967519e-09 8.509426328849043e-09)
(4.069082604919476e-05 1.796792192847544e-06 -1.3279466229396867e-07 1.1920886133737615e-05 -7.695634661438894e-09 8.742394827458826e-09)
(4.11315901719892e-05 1.6881694937141955e-06 -1.3546016036308099e-07 1.2064810965357044e-05 -7.409947413606541e-09 8.986885848282347e-09)
(4.1584146744005084e-05 1.5800101507541633e-06 -1.3838714891247078e-07 1.2209322365350887e-05 -7.356693257130113e-09 9.238361625995511e-09)
(4.204766055699021e-05 1.473472079695226e-06 -1.4139090978054633e-07 1.2356878118344126e-05 -7.519172584647984e-09 9.488269839171744e-09)
(4.252257865843761e-05 1.3689497142455083e-06 -1.4433061935678882e-07 1.2509342124977659e-05 -7.846116965941998e-09 9.731245728285484e-09)
(4.301162053132106e-05 1.2652246156738687e-06 -1.4717363790702506e-07 1.2666841904171905e-05 -8.209593458702614e-09 9.96933974668431e-09)
(4.351789112662455e-05 1.1609846114892024e-06 -1.4991948311119098e-07 1.2829230591520012e-05 -8.481583573108073e-09 1.0206088974875897e-08)
(4.4042862535455775e-05 1.056897624247844e-06 -1.5273079330434122e-07 1.2995542184826539e-05 -8.670799701936113e-09 1.0447963181670879e-08)
(4.458710506943743e-05 9.547890315531719e-07 -1.5586716677594255e-07 1.3164334129083142e-05 -8.865875398184266e-09 1.0703216278120276e-08)
(4.51507862632049e-05 8.563388352280381e-07 -1.5943494052423017e-07 1.3334943301315516e-05 -9.129676269874023e-09 1.0973314703368476e-08)
(4.573329268704445e-05 7.628062141279006e-07 -1.6319896913158257e-07 1.3508474490670152e-05 -9.464339439628268e-09 1.1244797928680442e-08)
(4.633352943578862e-05 6.752611503199486e-07 -1.6689236509162224e-07 1.3686082390687728e-05 -9.858939533145847e-09 1.1503447542511934e-08)
(4.694865912546535e-05 5.927915670203698e-07 -1.7045580723345503e-07 1.386735232371896e-05 -1.0251566763274859e-08 1.1751676541279452e-08)
(4.757438205477862e-05 5.133367322141603e-07 -1.7395162304879567e-07 1.4050808339251242e-05 -1.054867389936267e-08 1.2001752004792e-08)
(4.820768293595174e-05 4.3532847027997645e-07 -1.7742615583095414e-07 1.423512352557256e-05 -1.069198880585715e-08 1.2260363393691957e-08)
(4.884839911554595e-05 3.5857358683904977e-07 -1.8087815971430557e-07 1.4419289520467681e-05 -1.0712730955290435e-08 1.2519778145193242e-08)
(4.9496702523406936e-05 2.8309028807084437e-07 -1.8430171854592627e-07 1.4602302209423793e-05 -1.0654652823036499e-08 1.2770759732049364e-08)
(5.0152837713253065e-05 2.089275787545065e-07 -1.877275186555759e-07 1.47832597572229e-05 -1.0540254220876376e-08 1.3015212817025329e-08)
(5.0816763775635744e-05 1.3619715388527946e-07 -1.9121075107665188e-07 1.4961227160701805e-05 -1.0377225098776846e-08 1.3262834495941173e-08)
(5.1488384112811964e-05 6.545983008937874e-08 -1.9480910195168416e-07 1.5135738495298266e-05 -1.0196103437401404e-08 1.3520464649642896e-08)
(5.216786706389625e-05 -1.4258316432522017e-09 -1.9858484506739362e-07 1.5307903954908296e-05 -1.0096308292501562e-08 1.3785403263177825e-08)
(5.2855330468571055e-05 -6.232578481733398e-08 -2.0259744674576322e-07 1.5479127502310893e-05 -1.0185378474794179e-08 1.4052996608083673e-08)
(5.354940445367844e-05 -1.1553723355428971e-07 -2.0681144159858187e-07 1.5650289224264476e-05 -1.0431442611795359e-08 1.4317589547873021e-08)
(5.424768659091183e-05 -1.5977112851440676e-07 -2.1110695582079156e-07 1.5821877657672666e-05 -1.0676029283537946e-08 1.4572722295968932e-08)
(5.4946102851676705e-05 -1.9413883467969743e-07 -2.153688419111846e-07 1.5993903186328123e-05 -1.0780629025952957e-08 1.4814586973406373e-08)
(5.563463278779531e-05 -2.1947240395626963e-07 -2.1952760932550064e-07 1.616455447921164e-05 -1.0721268375506962e-08 1.5051057983950558e-08)
(5.630146900547985e-05 -2.3705672615443334e-07 -2.2352338469384736e-07 1.6331513671529757e-05 -1.0505729663016523e-08 1.5292911248545958e-08)
(5.6940666275861753e-05 -2.4788202557436045e-07 -2.2731387352628818e-07 1.6494240224678354e-05 -1.0217554290655506e-08 1.5543008305087273e-08)
(5.755305701007621e-05 -2.5256938570409787e-07 -2.308763944719057e-07 1.665425665369559e-05 -1.0030590596169622e-08 1.5794615035233265e-08)
(5.814064775240574e-05 -2.5205949410901824e-07 -2.3419639053954172e-07 1.681304635790612e-05 -1.008400589738245e-08 1.6041170537946237e-08)
(5.87097643208585e-05 -2.490927962433986e-07 -2.373017682967349e-07 1.6971017306186758e-05 -1.0269356840109459e-08 1.6281169459361478e-08)
(5.92679326315038e-05 -2.470959444160932e-07 -2.4023317159542127e-07 1.7128109360535302e-05 -1.0388874307345446e-08 1.6514720679566463e-08)
(5.981362511070942e-05 -2.4849986461265387e-07 -2.429579614287014e-07 1.72840199547593e-05 -1.0331553964695503e-08 1.6740598747050017e-08)
(6.033079286848049e-05 -2.541294412335918e-07 -2.453270769249823e-07 1.743798346419698e-05 -1.0124639954637821e-08 1.6955363389015536e-08)
(6.0804886095640746e-05 -2.6442055403630826e-07 -2.4724278427796924e-07 1.758900925074813e-05 -9.810490685328571e-09 1.7156373122087198e-08)
(6.124614102269222e-05 -2.7777850878813105e-07 -2.4910165482633235e-07 1.7735166407974445e-05 -9.449650554499486e-09 1.7349500181245598e-08)
(6.167643604112051e-05 -2.9163449419890983e-07 -2.51535069254371e-07 1.787404582265866e-05 -9.112066252868139e-09 1.754463177172639e-08)
(6.210659770856617e-05 -3.041685649912451e-07 -2.5475220125229217e-07 1.800490901228772e-05 -8.841287447470757e-09 1.774527946008198e-08)
(6.25255770736277e-05 -3.151112641260428e-07 -2.5812446794298133e-07 1.8130437887887657e-05 -8.627217683348892e-09 1.794240799177778e-08)
(6.292094667273864e-05 -3.243806686336485e-07 -2.609988426821654e-07 1.8253375664654203e-05 -8.450499794729169e-09 1.812663336881043e-08)
(6.32958814092061e-05 -3.3209677504406627e-07 -2.63575675326563e-07 1.8373276749941494e-05 -8.264357640216377e-09 1.8302142911098797e-08)
(6.366236455309423e-05 -3.384888410298218e-07 -2.6653932047551855e-07 1.8487878266962945e-05 -8.006202313970363e-09 1.8480819337083214e-08)
(6.402581761471214e-05 -3.4283062891270564e-07 -2.701590924136235e-07 1.859661177712273e-05 -7.691194150636437e-09 1.866750359298816e-08)
(6.437688122246552e-05 -3.422697003795211e-07 -2.737474029459037e-07 1.870295734625758e-05 -7.509781073157599e-09 1.8850971336480862e-08)
(6.47059944215045e-05 -3.3403363890920225e-07 -2.76554852280977e-07 1.881053367324951e-05 -7.64298947075668e-09 1.9019200611969642e-08)
(6.502513043227636e-05 -3.199737331099637e-07 -2.787321772722258e-07 1.891777066871032e-05 -7.873727265009844e-09 1.917774617553843e-08)
(6.535956955633312e-05 -3.0479345279689124e-07 -2.809825864014129e-07 1.9019912066006862e-05 -7.739100157190083e-09 1.9342973367046042e-08)
(6.571751024476032e-05 -2.912853992052097e-07 -2.8362827121701517e-07 1.9114053276407036e-05 -7.033153467152857e-09 1.951986580050068e-08)
(6.606714957673418e-05 -2.7767318836781145e-07 -2.8608820002961595e-07 1.9201697426533288e-05 -6.154143366545858e-09 1.9686742109999156e-08)
(6.63752399806032e-05 -2.616016000574364e-07 -2.877600980196338e-07 1.9284780297365767e-05 -5.550050710305451e-09 1.982148719339477e-08)
(6.665470010539698e-05 -2.416905679462326e-07 -2.891728186613709e-07 1.9362923677051348e-05 -5.247469296079672e-09 1.993810361119868e-08)
(6.694498934071423e-05 -2.1709929303586656e-07 -2.915067950481907e-07 1.9434444049725647e-05 -5.031553597971623e-09 2.0071428653215986e-08)
(6.72542396686744e-05 -1.8706536250572605e-07 -2.9508292424002604e-07 1.949966891768341e-05 -4.78394579644027e-09 2.0235299456407764e-08)
(6.75279232475939e-05 -1.5098880620760572e-07 -2.985002537896872e-07 1.9562932751864848e-05 -4.585644221666383e-09 2.0401212812412388e-08)
(6.771349943978565e-05 -1.0866349434802358e-07 -3.0036656476459595e-07 1.9628619199311778e-05 -4.530134489290373e-09 2.0539833972962514e-08)
(6.783510412035453e-05 -6.27355828301784e-08 -3.0105158916406404e-07 1.9697244943541644e-05 -4.619479928432303e-09 2.065641101312645e-08)
(6.795135315438868e-05 -1.7199854055626905e-08 -3.01715988311786e-07 1.9767602635432166e-05 -4.811824277264813e-09 2.0771754410289528e-08)
(6.808531656431942e-05 2.287303703562964e-08 -3.0283449311246704e-07 1.9838172072235677e-05 -4.955433977975887e-09 2.0894679661352466e-08)
(6.820899070065791e-05 5.099771352865511e-08 -3.0389347529859617e-07 1.9907092435935026e-05 -4.744221264838822e-09 2.1016813780718945e-08)
(6.829552604656819e-05 6.289491985768857e-08 -3.0444192946564795e-07 1.997246590327704e-05 -4.0027218638967015e-09 2.1130259883201943e-08)
(6.834344004252463e-05 6.534322506492636e-08 -3.0469310882560906e-07 2.0032687011720463e-05 -3.2209392220030374e-09 2.1236100983554456e-08)
(6.835944559877935e-05 6.78693269599804e-08 -3.050440755600941e-07 2.0086345767796858e-05 -3.0439351626418603e-09 2.1337741614941356e-08)
(6.836655374836311e-05 7.087994606491021e-08 -3.0572327212126804e-07 2.0134476158479274e-05 -3.369943655565613e-09 2.1434327837661233e-08)
(6.84015867248606e-05 6.708200197314659e-08 -3.068167913085488e-07 2.0180155512157693e-05 -3.465672079725315e-09 2.1521366484758182e-08)
(6.84776369839301e-05 5.384823371161451e-08 -3.0829780267096714e-07 2.0224607612216944e-05 -2.9343080694488916e-09 2.1597905935619675e-08)
(6.855282072320384e-05 3.968886012805015e-08 -3.098946838451596e-07 2.0264659138980448e-05 -2.1953542158624683e-09 2.1671200086631694e-08)
(6.858627715298871e-05 3.3699728662420664e-08 -3.1134217309015377e-07 2.0297200651558535e-05 -1.7143299793913865e-09 2.1748673685741043e-08)
(6.85949593224752e-05 3.8106636750340776e-08 -3.126533506390255e-07 2.0323526125220886e-05 -1.5010654652906912e-09 2.1830759051282837e-08)
(6.861589309878051e-05 5.216646049954605e-08 -3.139220284469199e-07 2.034659109992743e-05 -1.388551705039135e-09 2.1914698266902968e-08)
(6.863342837115697e-05 6.857813454277715e-08 -3.146979014119134e-07 2.0367652424813183e-05 -1.2138318641345888e-09 2.1987845651322363e-08)
(6.858294615758601e-05 7.395537393862804e-08 -3.1402800168852986e-07 2.0386382578232245e-05 -8.185794391726749e-10 2.2028445797264024e-08)
(6.844695765626837e-05 6.25017689421482e-08 -3.118633491095326e-07 2.040134697937332e-05 -1.8494679761734815e-10 2.203121180507908e-08)
(6.830934252984403e-05 4.4709769092928696e-08 -3.100580226410838e-07 2.0408994261724105e-05 4.1503732563445215e-10 2.2025673561327745e-08)
(6.824653839865735e-05 3.15755482715206e-08 -3.1015800909909973e-07 2.0407195594121496e-05 6.892853700676241e-10 2.2036840807095955e-08)
(6.823854176069019e-05 2.6460246133127797e-08 -3.1112162053311777e-07 2.040165344737505e-05 4.4054774866197746e-10 2.2047783420142996e-08)
(6.824069262510289e-05 2.9608944833979438e-08 -3.1132779125109736e-07 2.0399639990601495e-05 -4.359059681217722e-10 2.203336946858628e-08)
(6.823959908967577e-05 3.1463374726196586e-08 -3.1089285606481913e-07 2.0400868097472525e-05 -1.3708159823888156e-09 2.2008125591910036e-08)
(1.0469634966863502e-06 -2.4899805961688e-10 -2.152674975843226e-09 2.3085134622238122e-10 -1.7828039215637208e-10 1.6750330299290964e-09)
(5.228491171420111e-06 -9.411656554566441e-09 -9.411656554566445e-09 1.1589889892345621e-08 -6.3449386568085304e-09 1.1589889892345616e-08)
(9.005936911285334e-06 -3.4755250921200856e-08 -1.4910212569225448e-08 7.349549069559051e-08 -3.0898788689278086e-08 2.758045209343352e-08)
(1.222557603818622e-05 -6.963928346644233e-08 -2.0161854542990397e-08 2.4398831321563127e-07 -8.094364494029913e-08 4.643241565933293e-08)
(1.5484702196963e-05 -1.1428858356121696e-07 -2.650524777609891e-08 5.865104023537295e-07 -1.5677799446640192e-07 6.573365551782452e-08)
(1.9297843407594417e-05 -1.8207330166261182e-07 -3.6745640174516264e-08 1.1576213526654842e-06 -2.5421236952022113e-07 8.424504689523052e-08)
(2.4032380109753954e-05 -2.8971581775857915e-07 -5.788856353475944e-08 1.9985473176842828e-06 -3.66602818688929e-07 1.0155918464660569e-07)
(2.995414817805826e-05 -4.457390464071011e-07 -1.013991439186597e-07 3.130983259032338e-06 -4.863239713696092e-07 1.1777514169347459e-07)
(3.7253087592182135e-05 -6.3884412506152e-07 -1.8099171897961252e-07 4.5560206323824925e-06 -6.061433855724012e-07 1.3334930290630945e-07)
(4.604287471181306e-05 -8.344481599012524e-07 -3.0838215799663787e-07 6.257911690970235e-06 -7.204909930593148e-07 1.4884590530622034e-07)
(5.6351009573328136e-05 -9.777931245522405e-07 -4.898734391927501e-07 8.210690603702128e-06 -8.26079369255833e-07 1.6469191028076664e-07)
(6.811770388719245e-05 -1.002975118955185e-06 -7.247958647980002e-07 1.0384826117410248e-05 -9.21558485876063e-07 1.8099590992768298e-07)
(8.118105564051113e-05 -8.439595071388453e-07 -1.004542627981145e-06 1.274987614407666e-05 -1.0066959616705952e-06 1.974087206405538e-07)
(9.530139612065631e-05 -4.481773663121664e-07 -1.3151101704990671e-06 1.5278346845331975e-05 -1.08162684874831e-06 2.1336284702990037e-07)
(0.00011019909659881847 2.192453869083176e-07 -1.6401570818666753e-06 1.794643804469019e-05 -1.146342376815453e-06 2.2823256655719782e-07)
(0.0001255624455762546 1.1680887684314102e-06 -1.962909860408827e-06 2.0731584628066558e-05 -1.2001899418043463e-06 2.4143752280209645e-07)
(0.00014108554660744726 2.3851341435249988e-06 -2.2689064307100968e-06 2.361088694517286e-05 -1.2423051238497039e-06 2.526239544475757e-07)
(0.00015648534459394536 3.839436587427438e-06 -2.5465349261854087e-06 2.656187432427996e-05 -1.27177049436364e-06 2.6166651877524967e-07)
(0.0001715279199657744 5.4845656027454656e-06 -2.789139509317655e-06 2.9559932780435682e-05 -1.2878306728107893e-06 2.6872764473337444e-07)
(0.00018601403399155658 7.267023824292383e-06 -2.9927690950997015e-06 3.2579596062513835e-05 -1.2901014482975283e-06 2.740875279946483e-07)
(0.00019979942070667012 9.129179279031564e-06 -3.1565148617315046e-06 3.559574240476761e-05 -1.2790195567536617e-06 2.780876326364199e-07)
(0.0002127732271075086 1.1013962447654496e-05 -3.2815280008126004e-06 3.858248964771247e-05 -1.2552226245331708e-06 2.8107411944131955e-07)
(0.0002248820227476463 1.2869207121804039e-05 -3.371733874696509e-06 4.151616676378606e-05 -1.2194531751458913e-06 2.833849133480307e-07)
(0.000236090134257499 1.4647507062198487e-05 -3.431500617595989e-06 4.43726965071009e-05 -1.1728768375367063e-06 2.85380143373528e-07)
(0.0002463973782124674 1.6310325664279562e-05 -3.4655683174791564e-06 4.713191542468318e-05 -1.117135163064077e-06 2.8744813089965163e-07)
(0.0002558224214062235 1.7826245175479438e-05 -3.4789882028320894e-06 4.977566595816608e-05 -1.054064828435802e-06 2.898956777253509e-07)
(0.0002644135665177097 1.9173418741912195e-05 -3.4771509543140473e-06 5.229061186070663e-05 -9.85640505649815e-07 2.92930283262988e-07)
(0.00027222526347846454 2.033614124630763e-05 -3.4645702799760624e-06 5.46663526626948e-05 -9.137463128226433e-07 2.966674259116305e-07)
(0.00027932473325771904 2.1307032657525855e-05 -3.4446170616602566e-06 5.6898092065256694e-05 -8.400692398154284e-07 3.0111711473802044e-07)
(0.0002857826263516324 2.2083516113920914e-05 -3.4209978530707303e-06 5.898236646485737e-05 -7.661819967673399e-07 3.0631296129618544e-07)
(0.0002916850380613318 2.267137546481657e-05 -3.3979529600235873e-06 6.092120487676491e-05 -6.933477599368731e-07 3.123423207977324e-07)
(0.0002971096171054602 2.3080332963609334e-05 -3.3790835748341236e-06 6.271765721539525e-05 -6.229875549486665e-07 3.1925837826557427e-07)
(0.0003021233788654767 2.332856581509759e-05 -3.3663031458916027e-06 6.438032679030817e-05 -5.567226426404064e-07 3.2703845861445857e-07)
(0.00030679130466778313 2.3435255318239365e-05 -3.3608753812339084e-06 6.592029301930734e-05 -4.959982065546493e-07 3.356218385096496e-07)
(0.00031116456032087504 2.3417649850418746e-05 -3.362368763783673e-06 6.73522058507909e-05 -4.414843407714595e-07 3.4483453220673615e-07)
(0.00031529290690079215 2.3292290794261246e-05 -3.3699527760460677e-06 6.869229536172688e-05 -3.93552770357135e-07 3.544908298383392e-07)
(0.0003192153261774762 2.3070506886084532e-05 -3.3828856187113666e-06 6.99545875816948e-05 -3.5182137711465417e-07 3.645147916174042e-07)
(0.0003229683298457561 2.2761300824940216e-05 -3.4004729346664893e-06 7.115284354757336e-05 -3.155506082822452e-07 3.748847733986284e-07)
(0.0003265873698864126 2.2371997848703063e-05 -3.422353738289502e-06 7.229883302068923e-05 -2.8435021708907994e-07 3.855976995764362e-07)
(0.0003301080895820526 2.1908267624830765e-05 -3.4484882846887284e-06 7.34028083222969e-05 -2.5815061764825515e-07 3.9667058480277354e-07)
(0.000333565297434104 2.1375509828874547e-05 -3.478858954544047e-06 7.44740518320838e-05 -2.3663156745580083e-07 4.080647900813907e-07)
(0.00033699398016217354 2.0778027448110608e-05 -3.5134965286216167e-06 7.552054672346931e-05 -2.1889219143800378e-07 4.196311206376414e-07)
(0.00034042798122558995 2.012060826851929e-05 -3.5524717198653122e-06 7.654915347031298e-05 -2.0391200775866566e-07 4.31219383462974e-07)
(0.0003438975362660119 1.9409636888285962e-05 -3.596134447170977e-06 7.756247870330944e-05 -1.9049663603424974e-07 4.428049848980269e-07)
(0.0003474297648391546 1.8652486155196358e-05 -3.6449015640389646e-06 7.856108396030221e-05 -1.7740564665716147e-07 4.5440749663927676e-07)
(0.00035103185560024833 1.7856003967215655e-05 -3.6985536716584764e-06 7.954431940314243e-05 -1.6423648506052434e-07 4.661172748059232e-07)
(0.0003546917688021812 1.702614344734836e-05 -3.756231689688399e-06 8.051069863463128e-05 -1.514545546699565e-07 4.781032478797511e-07)
(0.00035840298265672407 1.616951526122148e-05 -3.817588310190164e-06 8.14597095388504e-05 -1.397293539380494e-07 4.905189290138699e-07)
(0.00036218497602667543 1.5293252490644763e-05 -3.884097163548672e-06 8.239547147958415e-05 -1.3019489114421078e-07 5.034662186061264e-07)
(0.00036605786567455736 1.4405600680792453e-05 -3.957315619665567e-06 8.33225499908455e-05 -1.2406066566841317e-07 5.170027525340324e-07)
(0.00037002816926349157 1.3514134064565067e-05 -4.035833447665787e-06 8.425022256555517e-05 -1.2188234872913978e-07 5.309002920890294e-07)
(0.000374088256422569 1.2627145558124572e-05 -4.116091097451296e-06 8.518993160018259e-05 -1.237751910656889e-07 5.447146688199316e-07)
(0.0003782434522931468 1.1749143645017971e-05 -4.195584561217685e-06 8.615128845226391e-05 -1.2920611296158604e-07 5.581615140756278e-07)
(0.0003825229184327998 1.0877091470815581e-05 -4.274338066690822e-06 8.713754255071244e-05 -1.361710462783433e-07 5.713272767159217e-07)
(0.0003869591535285794 1.0007379628803146e-05 -4.3529687103954745e-06 8.815091923577782e-05 -1.4260349940885982e-07 5.843758010766906e-07)
(0.00039156319139110397 9.144999108376338e-06 -4.434120907137999e-06 8.91884024962415e-05 -1.4835633584646946e-07 5.976470460592822e-07)
(0.00039633397156444734 8.299962740387396e-06 -4.5216531121297345e-06 9.02439595551856e-05 -1.5440117755410088e-07 6.115876318207886e-07)
(0.0004012699404951501 7.481676627449173e-06 -4.617020345259886e-06 9.131454757537956e-05 -1.6147825215196875e-07 6.262844325528817e-07)
(0.0004063695678780204 6.697650838104267e-06 -4.716343911484345e-06 9.24040124831623e-05 -1.6976686336197987e-07 6.410325531727069e-07)
(0.0004116277062642651 5.9544474097626215e-06 -4.815201356760277e-06 9.351621391209198e-05 -1.7925395529175954e-07 6.55080857167279e-07)
(0.00041701986775500275 5.24710161152083e-06 -4.912113848450099e-06 9.464854418246904e-05 -1.8870402114226058e-07 6.684977329192125e-07)
(0.00042250630769301333 4.564118835606701e-06 -5.0072913739864235e-06 9.579376785072019e-05 -1.9612609914104068e-07 6.81835844780232e-07)
(0.00042805858313437644 3.896709907738497e-06 -5.101172972830989e-06 9.694473660448239e-05 -2.0028896825322314e-07 6.954293163061826e-07)
(0.0004336735274159818 3.2438515662298333e-06 -5.194611588750842e-06 9.809411736492863e-05 -2.0188919009615432e-07 7.090380390838846e-07)
(0.00043935101043057924 2.6058694258341808e-06 -5.288515557813245e-06 9.92344452812443e-05 -2.0190541677122562e-07 7.223596785886178e-07)
(0.00044509289845022336 1.9848897112561465e-06 -5.38358674187235e-06 0.00010036132214289549 -2.0100639647292232e-07 7.354887328439182e-07)
(0.0004508995202704253 1.3846794528795406e-06 -5.48033874455221e-06 0.0001014718791203387 -1.9964792206624914e-07 7.48795225803676e-07)
(0.00045677139950181013 8.10988875268864e-07 -5.579390020102328e-06 0.0001025649056384917 -1.9847861544962388e-07 7.625325634969098e-07)
(0.0004627133186474695 2.7485742123016625e-07 -5.681712515688507e-06 0.00010364491626821051 -1.9870773121797603e-07 7.765710165510692e-07)
(0.00046872982880622594 -2.1144733299622805e-07 -5.788285259204547e-06 0.00010471747115369627 -2.015805009320727e-07 7.907003220143305e-07)
(0.0004748079642814803 -6.373954723286213e-07 -5.8985806355738e-06 0.00010578594173465225 -2.0646493860820264e-07 8.046444941414128e-07)
(0.0004809216381043024 -9.942245674870927e-07 -6.010751669277944e-06 0.000106852230448527 -2.1102434450945564e-07 8.180734902692261e-07)
(0.00048703137147029503 -1.2749533051973608e-06 -6.1228161592075814e-06 0.00010791642399183912 -2.1329212187480373e-07 8.307842940144665e-07)
(0.0004930517409544715 -1.4806566982761225e-06 -6.2326835991625405e-06 0.00010897195630214587 -2.1327603160347174e-07 8.431384427417351e-07)
(0.0004988832999974374 -1.6146464830058832e-06 -6.338182119845294e-06 0.00011001029431018469 -2.11522041086531e-07 8.556385665184859e-07)
(0.0005044770966949194 -1.6849561859018226e-06 -6.437985923381577e-06 0.00011102946830919547 -2.0930711314803737e-07 8.684524383496768e-07)
(0.000509842509669327 -1.705146091651086e-06 -6.531745863957101e-06 0.00011203495350076288 -2.0877660393276206e-07 8.813406094000198e-07)
(0.0005149977616523628 -1.6900713616521162e-06 -6.6192996162941845e-06 0.00011303256878799642 -2.116156245475536e-07 8.940545840762449e-07)
(0.0005199909020763727 -1.6579743752124968e-06 -6.7012684778601675e-06 0.00011402703419909412 -2.163533586442735e-07 9.064624708659032e-07)
(0.0005248776499545381 -1.628647192303048e-06 -6.77850122789932e-06 0.00011502213588977034 -2.20369581458005e-07 9.184637251202594e-07)
(0.0005296445488798061 -1.6176479400609794e-06 -6.850707968516006e-06 0.00011601686763652348 -2.2172222618034722e-07 9.299309972987128e-07)
(0.0005341668470311086 -1.6336243780040622e-06 -6.915765595488145e-06 0.00011700216320346222 -2.1956754931384016e-07 9.406898474908346e-07)
(0.0005383311625274628 -1.6827158260755164e-06 -6.972453994563357e-06 0.00011796729614174434 -2.1341174954652881e-07 9.50626170356982e-07)
(0.000542214571814239 -1.7550394809564103e-06 -7.028054793674083e-06 0.00011889799494163724 -2.0483786199323282e-07 9.60163885190139e-07)
(0.0005459835233095413 -1.8330645464888907e-06 -7.093890157466845e-06 0.00011977805908576278 -1.9642297044851867e-07 9.69981286555337e-07)
(0.0005497201188741319 -1.9036362774566336e-06 -7.173604320218214e-06 0.00012060285529433073 -1.898560769230431e-07 9.802837978330037e-07)