/*--------------------------------*- C++ -*----------------------------------*\
| =========                 |                                                 |
| \\      /  F ield         | OpenFOAM: The Open Source CFD Toolbox           |
|  \\    /   O peration     | Version:  2306                                  |
|   \\  /    A nd           | Website:  www.openfoam.com                      |
|    \\/     M anipulation  |                                                 |
\*---------------------------------------------------------------------------*/
// * * * * * * * * * * * * * * * * * * * * * * * * * * * * * * * * * * * * * //
FoamFile
{
    version         2;
    format          ascii;
    class           volSymmTensorField;
    location        "99.27";
    object          Rdns;
}

dimensions      [ 0 2 -2 0 0 0 0 ];

internalField   nonuniform List<symmTensor> 
15625
(
(2.75465e-07 -8.85045e-11 -8.85045e-11 6.8798e-11 3.56042e-12 6.8798e-11)
(1.04696e-06 -2.15267e-09 -2.48998e-10 1.67503e-09 -1.7828e-10 2.30851e-10)
(1.57091e-06 -6.83951e-09 -3.14505e-10 1.01626e-08 -1.14243e-09 4.7964e-10)
(1.94668e-06 -1.21951e-08 -4.88012e-10 3.39928e-08 -3.29895e-09 7.69221e-10)
(2.30044e-06 -1.77304e-08 -7.55107e-10 8.27771e-08 -6.69054e-09 1.06593e-09)
(2.71112e-06 -2.54012e-08 -1.14548e-09 1.65112e-07 -1.11156e-08 1.35159e-09)
(3.2256e-06 -3.78893e-08 -1.87632e-09 2.87425e-07 -1.62711e-08 1.6237e-09)
(3.87398e-06 -5.70925e-08 -3.3938e-09 4.532e-07 -2.17898e-08 1.88223e-09)
(4.6765e-06 -8.22711e-08 -6.26445e-09 6.62848e-07 -2.73229e-08 2.13451e-09)
(5.64497e-06 -1.09513e-07 -1.09977e-08 9.14054e-07 -3.25851e-08 2.38808e-09)
(6.782e-06 -1.31952e-07 -1.78911e-08 1.20281e-06 -3.74115e-08 2.64983e-09)
(8.08085e-06 -1.40921e-07 -2.69488e-08 1.52451e-06 -4.17449e-08 2.92253e-09)
(9.52371e-06 -1.27452e-07 -3.78278e-08 1.87437e-06 -4.55837e-08 3.1998e-09)
(1.10841e-05 -8.42772e-08 -4.99468e-08 2.24816e-06 -4.89493e-08 3.47201e-09)
(1.27313e-05 -6.44492e-09 -6.26208e-08 2.64223e-06 -5.18524e-08 3.72853e-09)
(1.44305e-05 1.07664e-07 -7.51467e-08 3.05307e-06 -5.42597e-08 3.95887e-09)
(1.61478e-05 2.56447e-07 -8.69152e-08 3.47706e-06 -5.61266e-08 4.15656e-09)
(1.78518e-05 4.35825e-07 -9.74388e-08 3.91061e-06 -5.74059e-08 4.31924e-09)
(1.95161e-05 6.39712e-07 -1.06461e-07 4.34968e-06 -5.80567e-08 4.44976e-09)
(2.11187e-05 8.61093e-07 -1.13839e-07 4.79013e-06 -5.80612e-08 4.55298e-09)
(2.26434e-05 1.09239e-06 -1.19544e-07 5.22802e-06 -5.74552e-08 4.63465e-09)
(2.40777e-05 1.32615e-06 -1.23638e-07 5.65943e-06 -5.62794e-08 4.70024e-09)
(2.54158e-05 1.55559e-06 -1.26312e-07 6.08087e-06 -5.45673e-08 4.7546e-09)
(2.66538e-05 1.77463e-06 -1.27765e-07 6.48886e-06 -5.23757e-08 4.80335e-09)
(2.77917e-05 1.97838e-06 -1.28196e-07 6.8806e-06 -4.97893e-08 4.8532e-09)
(2.88317e-05 2.16293e-06 -1.27823e-07 7.25369e-06 -4.69e-08 4.90918e-09)
(2.97792e-05 2.32563e-06 -1.26882e-07 7.60659e-06 -4.38038e-08 4.97438e-09)
(3.06405e-05 2.46463e-06 -1.2556e-07 7.93821e-06 -4.05884e-08 5.0505e-09)
(3.14231e-05 2.57919e-06 -1.23983e-07 8.24833e-06 -3.73284e-08 5.13773e-09)
(3.2135e-05 2.66909e-06 -1.22299e-07 8.53688e-06 -3.40901e-08 5.23661e-09)
(3.27859e-05 2.73514e-06 -1.20693e-07 8.80451e-06 -3.09222e-08 5.34853e-09)
(3.33845e-05 2.77873e-06 -1.1932e-07 9.05203e-06 -2.78832e-08 5.4743e-09)
(3.39385e-05 2.80257e-06 -1.18258e-07 9.28097e-06 -2.50471e-08 5.61356e-09)
(3.44553e-05 2.80947e-06 -1.17553e-07 9.49324e-06 -2.24798e-08 5.76542e-09)
(3.49404e-05 2.80179e-06 -1.17171e-07 9.69126e-06 -2.02084e-08 5.92755e-09)
(3.53993e-05 2.78174e-06 -1.17063e-07 9.87763e-06 -1.82445e-08 6.09745e-09)
(3.58364e-05 2.75082e-06 -1.17191e-07 1.00545e-05 -1.65591e-08 6.27381e-09)
(3.62559e-05 2.7102e-06 -1.17528e-07 1.02241e-05 -1.51049e-08 6.456e-09)
(3.66616e-05 2.66082e-06 -1.18055e-07 1.0388e-05 -1.38669e-08 6.64437e-09)
(3.70574e-05 2.60336e-06 -1.18761e-07 1.05477e-05 -1.28603e-08 6.84024e-09)
(3.7447e-05 2.53838e-06 -1.19638e-07 1.07045e-05 -1.20798e-08 7.04329e-09)
(3.78341e-05 2.46608e-06 -1.20674e-07 1.086e-05 -1.14719e-08 7.24978e-09)
(3.82224e-05 2.38672e-06 -1.2186e-07 1.10153e-05 -1.09734e-08 7.45591e-09)
(3.86153e-05 2.3008e-06 -1.23212e-07 1.11704e-05 -1.05072e-08 7.66125e-09)
(3.90156e-05 2.20895e-06 -1.24752e-07 1.13248e-05 -9.9921e-09 7.86655e-09)
(3.94242e-05 2.11183e-06 -1.26484e-07 1.14777e-05 -9.40542e-09 8.07398e-09)
(3.98396e-05 2.0101e-06 -1.28387e-07 1.16281e-05 -8.78534e-09 8.28719e-09)
(4.0261e-05 1.90463e-06 -1.30464e-07 1.17756e-05 -8.18549e-09 8.50943e-09)
(4.06908e-05 1.79679e-06 -1.32795e-07 1.19209e-05 -7.69563e-09 8.74239e-09)
(4.11316e-05 1.68817e-06 -1.3546e-07 1.20648e-05 -7.40995e-09 8.98689e-09)
(4.15841e-05 1.58001e-06 -1.38387e-07 1.22093e-05 -7.35669e-09 9.23836e-09)
(4.20477e-05 1.47347e-06 -1.41391e-07 1.23569e-05 -7.51917e-09 9.48827e-09)
(4.25226e-05 1.36895e-06 -1.44331e-07 1.25093e-05 -7.84612e-09 9.73125e-09)
(4.30116e-05 1.26522e-06 -1.47174e-07 1.26668e-05 -8.20959e-09 9.96934e-09)
(4.35179e-05 1.16098e-06 -1.49919e-07 1.28292e-05 -8.48158e-09 1.02061e-08)
(4.40429e-05 1.0569e-06 -1.52731e-07 1.29955e-05 -8.6708e-09 1.0448e-08)
(4.45871e-05 9.54789e-07 -1.55867e-07 1.31643e-05 -8.86588e-09 1.07032e-08)
(4.51508e-05 8.56339e-07 -1.59435e-07 1.33349e-05 -9.12968e-09 1.09733e-08)
(4.57333e-05 7.62806e-07 -1.63199e-07 1.35085e-05 -9.46434e-09 1.12448e-08)
(4.63335e-05 6.75261e-07 -1.66892e-07 1.36861e-05 -9.85894e-09 1.15034e-08)
(4.69487e-05 5.92792e-07 -1.70456e-07 1.38674e-05 -1.02516e-08 1.17517e-08)
(4.75744e-05 5.13337e-07 -1.73952e-07 1.40508e-05 -1.05487e-08 1.20018e-08)
(4.82077e-05 4.35328e-07 -1.77426e-07 1.42351e-05 -1.0692e-08 1.22604e-08)
(4.88484e-05 3.58574e-07 -1.80878e-07 1.44193e-05 -1.07127e-08 1.25198e-08)
(4.94967e-05 2.8309e-07 -1.84302e-07 1.46023e-05 -1.06547e-08 1.27708e-08)
(5.01528e-05 2.08928e-07 -1.87728e-07 1.47833e-05 -1.05403e-08 1.30152e-08)
(5.08168e-05 1.36197e-07 -1.91211e-07 1.49612e-05 -1.03772e-08 1.32628e-08)
(5.14884e-05 6.54598e-08 -1.94809e-07 1.51357e-05 -1.01961e-08 1.35205e-08)
(5.21679e-05 -1.42583e-09 -1.98585e-07 1.53079e-05 -1.00963e-08 1.37854e-08)
(5.28553e-05 -6.23258e-08 -2.02597e-07 1.54791e-05 -1.01854e-08 1.4053e-08)
(5.35494e-05 -1.15537e-07 -2.06811e-07 1.56503e-05 -1.04314e-08 1.43176e-08)
(5.42477e-05 -1.59771e-07 -2.11107e-07 1.58219e-05 -1.0676e-08 1.45727e-08)
(5.49461e-05 -1.94139e-07 -2.15369e-07 1.59939e-05 -1.07806e-08 1.48146e-08)
(5.56346e-05 -2.19472e-07 -2.19528e-07 1.61646e-05 -1.07213e-08 1.50511e-08)
(5.63015e-05 -2.37057e-07 -2.23523e-07 1.63315e-05 -1.05057e-08 1.52929e-08)
(5.69407e-05 -2.47882e-07 -2.27314e-07 1.64942e-05 -1.02176e-08 1.5543e-08)
(5.75531e-05 -2.52569e-07 -2.30876e-07 1.66543e-05 -1.00306e-08 1.57946e-08)
(5.81406e-05 -2.52059e-07 -2.34196e-07 1.6813e-05 -1.0084e-08 1.60412e-08)
(5.87098e-05 -2.49093e-07 -2.37302e-07 1.6971e-05 -1.02694e-08 1.62812e-08)
(5.92679e-05 -2.47096e-07 -2.40233e-07 1.71281e-05 -1.03889e-08 1.65147e-08)
(5.98136e-05 -2.485e-07 -2.42958e-07 1.7284e-05 -1.03316e-08 1.67406e-08)
(6.03308e-05 -2.54129e-07 -2.45327e-07 1.7438e-05 -1.01246e-08 1.69554e-08)
(6.08049e-05 -2.64421e-07 -2.47243e-07 1.7589e-05 -9.81049e-09 1.71564e-08)
(6.12461e-05 -2.77779e-07 -2.49102e-07 1.77352e-05 -9.44965e-09 1.73495e-08)
(6.16764e-05 -2.91634e-07 -2.51535e-07 1.7874e-05 -9.11207e-09 1.75446e-08)
(6.21066e-05 -3.04169e-07 -2.54752e-07 1.80049e-05 -8.84129e-09 1.77453e-08)
(6.25256e-05 -3.15111e-07 -2.58124e-07 1.81304e-05 -8.62722e-09 1.79424e-08)
(6.29209e-05 -3.24381e-07 -2.60999e-07 1.82534e-05 -8.4505e-09 1.81266e-08)
(6.32959e-05 -3.32097e-07 -2.63576e-07 1.83733e-05 -8.26436e-09 1.83021e-08)
(6.36624e-05 -3.38489e-07 -2.66539e-07 1.84879e-05 -8.0062e-09 1.84808e-08)
(6.40258e-05 -3.42831e-07 -2.70159e-07 1.85966e-05 -7.69119e-09 1.86675e-08)
(6.43769e-05 -3.4227e-07 -2.73747e-07 1.8703e-05 -7.50978e-09 1.8851e-08)
(6.4706e-05 -3.34034e-07 -2.76555e-07 1.88105e-05 -7.64299e-09 1.90192e-08)
(6.50251e-05 -3.19974e-07 -2.78732e-07 1.89178e-05 -7.87373e-09 1.91777e-08)
(6.53596e-05 -3.04793e-07 -2.80983e-07 1.90199e-05 -7.7391e-09 1.9343e-08)
(6.57175e-05 -2.91285e-07 -2.83628e-07 1.91141e-05 -7.03315e-09 1.95199e-08)
(6.60671e-05 -2.77673e-07 -2.86088e-07 1.92017e-05 -6.15414e-09 1.96867e-08)
(6.63752e-05 -2.61602e-07 -2.8776e-07 1.92848e-05 -5.55005e-09 1.98215e-08)
(6.66547e-05 -2.41691e-07 -2.89173e-07 1.93629e-05 -5.24747e-09 1.99381e-08)
(6.6945e-05 -2.17099e-07 -2.91507e-07 1.94344e-05 -5.03155e-09 2.00714e-08)
(6.72542e-05 -1.87065e-07 -2.95083e-07 1.94997e-05 -4.78395e-09 2.02353e-08)
(6.75279e-05 -1.50989e-07 -2.985e-07 1.95629e-05 -4.58564e-09 2.04012e-08)
(6.77135e-05 -1.08663e-07 -3.00367e-07 1.96286e-05 -4.53013e-09 2.05398e-08)
(6.78351e-05 -6.27356e-08 -3.01052e-07 1.96972e-05 -4.61948e-09 2.06564e-08)
(6.79514e-05 -1.71999e-08 -3.01716e-07 1.97676e-05 -4.81182e-09 2.07718e-08)
(6.80853e-05 2.2873e-08 -3.02834e-07 1.98382e-05 -4.95543e-09 2.08947e-08)
(6.8209e-05 5.09977e-08 -3.03893e-07 1.99071e-05 -4.74422e-09 2.10168e-08)
(6.82955e-05 6.28949e-08 -3.04442e-07 1.99725e-05 -4.00272e-09 2.11303e-08)
(6.83434e-05 6.53432e-08 -3.04693e-07 2.00327e-05 -3.22094e-09 2.12361e-08)
(6.83594e-05 6.78693e-08 -3.05044e-07 2.00863e-05 -3.04394e-09 2.13377e-08)
(6.83666e-05 7.08799e-08 -3.05723e-07 2.01345e-05 -3.36994e-09 2.14343e-08)
(6.84016e-05 6.7082e-08 -3.06817e-07 2.01802e-05 -3.46567e-09 2.15214e-08)
(6.84776e-05 5.38482e-08 -3.08298e-07 2.02246e-05 -2.93431e-09 2.15979e-08)
(6.85528e-05 3.96889e-08 -3.09895e-07 2.02647e-05 -2.19535e-09 2.16712e-08)
(6.85863e-05 3.36997e-08 -3.11342e-07 2.02972e-05 -1.71433e-09 2.17487e-08)
(6.8595e-05 3.81066e-08 -3.12653e-07 2.03235e-05 -1.50107e-09 2.18308e-08)
(6.86159e-05 5.21665e-08 -3.13922e-07 2.03466e-05 -1.38855e-09 2.19147e-08)
(6.86334e-05 6.85781e-08 -3.14698e-07 2.03677e-05 -1.21383e-09 2.19878e-08)
(6.85829e-05 7.39554e-08 -3.14028e-07 2.03864e-05 -8.18579e-10 2.20284e-08)
(6.8447e-05 6.25018e-08 -3.11863e-07 2.04013e-05 -1.84947e-10 2.20312e-08)
(6.83093e-05 4.47098e-08 -3.10058e-07 2.0409e-05 4.15037e-10 2.20257e-08)
(6.82465e-05 3.15755e-08 -3.10158e-07 2.04072e-05 6.89285e-10 2.20368e-08)
(6.82385e-05 2.64602e-08 -3.11122e-07 2.04017e-05 4.40548e-10 2.20478e-08)
(6.82407e-05 2.96089e-08 -3.11328e-07 2.03996e-05 -4.35906e-10 2.20334e-08)
(6.82396e-05 3.14634e-08 -3.10893e-07 2.04009e-05 -1.37082e-09 2.20081e-08)
(1.04696e-06 -2.48998e-10 -2.15267e-09 2.30851e-10 -1.7828e-10 1.67503e-09)
(5.22849e-06 -9.41166e-09 -9.41166e-09 1.15899e-08 -6.34494e-09 1.15899e-08)
(9.00594e-06 -3.47553e-08 -1.49102e-08 7.34955e-08 -3.08988e-08 2.75805e-08)
(1.22256e-05 -6.96393e-08 -2.01619e-08 2.43988e-07 -8.09436e-08 4.64324e-08)
(1.54847e-05 -1.14289e-07 -2.65052e-08 5.8651e-07 -1.56778e-07 6.57337e-08)
(1.92978e-05 -1.82073e-07 -3.67456e-08 1.15762e-06 -2.54212e-07 8.4245e-08)
(2.40324e-05 -2.89716e-07 -5.78886e-08 1.99855e-06 -3.66603e-07 1.01559e-07)
(2.99541e-05 -4.45739e-07 -1.01399e-07 3.13098e-06 -4.86324e-07 1.17775e-07)
(3.72531e-05 -6.38844e-07 -1.80992e-07 4.55602e-06 -6.06143e-07 1.33349e-07)
(4.60429e-05 -8.34448e-07 -3.08382e-07 6.25791e-06 -7.20491e-07 1.48846e-07)
(5.6351e-05 -9.77793e-07 -4.89873e-07 8.21069e-06 -8.26079e-07 1.64692e-07)
(6.81177e-05 -1.00298e-06 -7.24796e-07 1.03848e-05 -9.21558e-07 1.80996e-07)
(8.11811e-05 -8.4396e-07 -1.00454e-06 1.27499e-05 -1.0067e-06 1.97409e-07)
(9.53014e-05 -4.48177e-07 -1.31511e-06 1.52783e-05 -1.08163e-06 2.13363e-07)
(0.000110199 2.19245e-07 -1.64016e-06 1.79464e-05 -1.14634e-06 2.28233e-07)
(0.000125562 1.16809e-06 -1.96291e-06 2.07316e-05 -1.20019e-06 2.41438e-07)
(0.000141086 2.38513e-06 -2.26891e-06 2.36109e-05 -1.24231e-06 2.52624e-07)
(0.000156485 3.83944e-06 -2.54653e-06 2.65619e-05 -1.27177e-06 2.61667e-07)
(0.000171528 5.48457e-06 -2.78914e-06 2.95599e-05 -1.28783e-06 2.68728e-07)
(0.000186014 7.26702e-06 -2.99277e-06 3.25796e-05 -1.2901e-06 2.74088e-07)
(0.000199799 9.12918e-06 -3.15651e-06 3.55957e-05 -1.27902e-06 2.78088e-07)
(0.000212773 1.1014e-05 -3.28153e-06 3.85825e-05 -1.25522e-06 2.81074e-07)
(0.000224882 1.28692e-05 -3.37173e-06 4.15162e-05 -1.21945e-06 2.83385e-07)
(0.00023609 1.46475e-05 -3.4315e-06 4.43727e-05 -1.17288e-06 2.8538e-07)
(0.000246397 1.63103e-05 -3.46557e-06 4.71319e-05 -1.11714e-06 2.87448e-07)
(0.000255822 1.78262e-05 -3.47899e-06 4.97757e-05 -1.05406e-06 2.89896e-07)
(0.000264414 1.91734e-05 -3.47715e-06 5.22906e-05 -9.85641e-07 2.9293e-07)
(0.000272225 2.03361e-05 -3.46457e-06 5.46664e-05 -9.13746e-07 2.96667e-07)
(0.000279325 2.1307e-05 -3.44462e-06 5.68981e-05 -8.40069e-07 3.01117e-07)
(0.000285783 2.20835e-05 -3.421e-06 5.89824e-05 -7.66182e-07 3.06313e-07)
(0.000291685 2.26714e-05 -3.39795e-06 6.09212e-05 -6.93348e-07 3.12342e-07)
(0.00029711 2.30803e-05 -3.37908e-06 6.27177e-05 -6.22988e-07 3.19258e-07)
(0.000302123 2.33286e-05 -3.3663e-06 6.43803e-05 -5.56723e-07 3.27038e-07)
(0.000306791 2.34353e-05 -3.36088e-06 6.59203e-05 -4.95998e-07 3.35622e-07)
(0.000311165 2.34176e-05 -3.36237e-06 6.73522e-05 -4.41484e-07 3.44835e-07)
(0.000315293 2.32923e-05 -3.36995e-06 6.86923e-05 -3.93553e-07 3.54491e-07)
(0.000319215 2.30705e-05 -3.38289e-06 6.99546e-05 -3.51821e-07 3.64515e-07)
(0.000322968 2.27613e-05 -3.40047e-06 7.11528e-05 -3.15551e-07 3.74885e-07)
(0.000326587 2.2372e-05 -3.42235e-06 7.22988e-05 -2.8435e-07 3.85598e-07)
(0.000330108 2.19083e-05 -3.44849e-06 7.34028e-05 -2.58151e-07 3.96671e-07)
(0.000333565 2.13755e-05 -3.47886e-06 7.44741e-05 -2.36632e-07 4.08065e-07)
(0.000336994 2.0778e-05 -3.5135e-06 7.55205e-05 -2.18892e-07 4.19631e-07)
(0.000340428 2.01206e-05 -3.55247e-06 7.65492e-05 -2.03912e-07 4.31219e-07)
(0.000343898 1.94096e-05 -3.59613e-06 7.75625e-05 -1.90497e-07 4.42805e-07)
(0.00034743 1.86525e-05 -3.6449e-06 7.85611e-05 -1.77406e-07 4.54407e-07)
(0.000351032 1.7856e-05 -3.69855e-06 7.95443e-05 -1.64236e-07 4.66117e-07)
(0.000354692 1.70261e-05 -3.75623e-06 8.05107e-05 -1.51455e-07 4.78103e-07)
(0.000358403 1.61695e-05 -3.81759e-06 8.14597e-05 -1.39729e-07 4.90519e-07)
(0.000362185 1.52933e-05 -3.8841e-06 8.23955e-05 -1.30195e-07 5.03466e-07)
(0.000366058 1.44056e-05 -3.95732e-06 8.33225e-05 -1.24061e-07 5.17003e-07)
(0.000370028 1.35141e-05 -4.03583e-06 8.42502e-05 -1.21882e-07 5.309e-07)
(0.000374088 1.26271e-05 -4.11609e-06 8.51899e-05 -1.23775e-07 5.44715e-07)
(0.000378243 1.17491e-05 -4.19558e-06 8.61513e-05 -1.29206e-07 5.58162e-07)
(0.000382523 1.08771e-05 -4.27434e-06 8.71375e-05 -1.36171e-07 5.71327e-07)
(0.000386959 1.00074e-05 -4.35297e-06 8.81509e-05 -1.42603e-07 5.84376e-07)
(0.000391563 9.145e-06 -4.43412e-06 8.91884e-05 -1.48356e-07 5.97647e-07)
(0.000396334 8.29996e-06 -4.52165e-06 9.0244e-05 -1.54401e-07 6.11588e-07)
(0.00040127 7.48168e-06 -4.61702e-06 9.13145e-05 -1.61478e-07 6.26284e-07)
(0.00040637 6.69765e-06 -4.71634e-06 9.2404e-05 -1.69767e-07 6.41033e-07)
(0.000411628 5.95445e-06 -4.8152e-06 9.35162e-05 -1.79254e-07 6.55081e-07)
(0.00041702 5.2471e-06 -4.91211e-06 9.46485e-05 -1.88704e-07 6.68498e-07)
(0.000422506 4.56412e-06 -5.00729e-06 9.57938e-05 -1.96126e-07 6.81836e-07)
(0.000428059 3.89671e-06 -5.10117e-06 9.69447e-05 -2.00289e-07 6.95429e-07)
(0.000433674 3.24385e-06 -5.19461e-06 9.80941e-05 -2.01889e-07 7.09038e-07)
(0.000439351 2.60587e-06 -5.28852e-06 9.92344e-05 -2.01905e-07 7.2236e-07)
(0.000445093 1.98489e-06 -5.38359e-06 0.000100361 -2.01006e-07 7.35489e-07)
(0.0004509 1.38468e-06 -5.48034e-06 0.000101472 -1.99648e-07 7.48795e-07)
(0.000456771 8.10989e-07 -5.57939e-06 0.000102565 -1.98479e-07 7.62533e-07)
(0.000462713 2.74857e-07 -5.68171e-06 0.000103645 -1.98708e-07 7.76571e-07)
(0.00046873 -2.11447e-07 -5.78829e-06 0.000104717 -2.01581e-07 7.907e-07)
(0.000474808 -6.37395e-07 -5.89858e-06 0.000105786 -2.06465e-07 8.04644e-07)
(0.000480922 -9.94225e-07 -6.01075e-06 0.000106852 -2.11024e-07 8.18073e-07)
(0.000487031 -1.27495e-06 -6.12282e-06 0.000107916 -2.13292e-07 8.30784e-07)
(0.000493052 -1.48066e-06 -6.23268e-06 0.000108972 -2.13276e-07 8.43138e-07)
(0.000498883 -1.61465e-06 -6.33818e-06 0.00011001 -2.11522e-07 8.55639e-07)
(0.000504477 -1.68496e-06 -6.43799e-06 0.000111029 -2.09307e-07 8.68452e-07)
(0.000509843 -1.70515e-06 -6.53175e-06 0.000112035 -2.08777e-07 8.81341e-07)
(0.000514998 -1.69007e-06 -6.6193e-06 0.000113033 -2.11616e-07 8.94055e-07)
(0.000519991 -1.65797e-06 -6.70127e-06 0.000114027 -2.16353e-07 9.06462e-07)
(0.000524878 -1.62865e-06 -6.7785e-06 0.000115022 -2.2037e-07 9.18464e-07)
(0.000529645 -1.61765e-06 -6.85071e-06 0.000116017 -2.21722e-07 9.29931e-07)
(0.000534167 -1.63362e-06 -6.91577e-06 0.000117002 -2.19568e-07 9.4069e-07)
(0.000538331 -1.68272e-06 -6.97245e-06 0.000117967 -2.13412e-07 9.50626e-07)
(0.000542215 -1.75504e-06 -7.02805e-06 0.000118898 -2.04838e-07 9.60164e-07)
(0.000545984 -1.83306e-06 -7.09389e-06 0.000119778 -1.96423e-07 9.69981e-07)
(0.00054972 -1.90364e-06 -7.1736e-06 0.000120603 -1.89856e-07 9.80284e-07)
(0.00055334 -1.96276e-06 -7.25563e-06 0.000121391 -1.8501e-07 9.90345e-07)
(0.000556748 -2.00799e-06 -7.32792e-06 0.000122163 -1.81506e-07 9.9942e-07)
(0.000559972 -2.04302e-06 -7.39369e-06 0.000122919 -1.78581e-07 1.00785e-06)
(0.00056311 -2.07497e-06 -7.46483e-06 0.000123646 -1.75246e-07 1.01658e-06)
(0.000566212 -2.10244e-06 -7.5465e-06 0.000124342 -1.71365e-07 1.02602e-06)
(0.000569219 -2.10471e-06 -7.62836e-06 0.00012502 -1.68735e-07 1.03537e-06)
(0.000572074 -2.06056e-06 -7.69901e-06 0.000125695 -1.69035e-07 1.04372e-06)
(0.000574871 -1.97658e-06 -7.76074e-06 0.000126358 -1.69459e-07 1.05134e-06)
(0.000577802 -1.87641e-06 -7.82428e-06 0.000126991 -1.64431e-07 1.05915e-06)
(0.000580922 -1.77185e-06 -7.89394e-06 0.000127581 -1.51944e-07 1.06754e-06)
(0.000583977 -1.64649e-06 -7.95887e-06 0.000128137 -1.38327e-07 1.07559e-06)
(0.000586699 -1.48167e-06 -8.00801e-06 0.000128672 -1.3039e-07 1.0823e-06)
(0.000589179 -1.27869e-06 -8.05072e-06 0.000129183 -1.26991e-07 1.08823e-06)
(0.000591708 -1.05022e-06 -8.10815e-06 0.000129662 -1.22415e-07 1.09483e-06)
(0.00059434 -8.01324e-07 -8.18626e-06 0.00013011 -1.14231e-07 1.10267e-06)
(0.000596652 -5.21534e-07 -8.26059e-06 0.000130539 -1.06654e-07 1.11063e-06)
(0.000598241 -2.02197e-07 -8.30668e-06 0.000130967 -1.04083e-07 1.11752e-06)
(0.000599306 1.36929e-07 -8.33022e-06 0.000131402 -1.05909e-07 1.12341e-06)
(0.000600318 4.62915e-07 -8.35039e-06 0.000131851 -1.09222e-07 1.1289e-06)
(0.000601454 7.3985e-07 -8.37545e-06 0.000132308 -1.10433e-07 1.13437e-06)
(0.000602466 9.28453e-07 -8.39784e-06 0.000132753 -1.05045e-07 1.13981e-06)
(0.000603127 1.00393e-06 -8.41112e-06 0.000133167 -9.076e-08 1.14516e-06)
(0.000603463 1.01182e-06 -8.42003e-06 0.000133543 -7.58439e-08 1.15034e-06)
(0.000603576 1.01498e-06 -8.43229e-06 0.000133879 -7.09928e-08 1.15526e-06)
(0.00060365 1.01475e-06 -8.45143e-06 0.000134182 -7.43216e-08 1.15981e-06)
(0.000603936 9.60521e-07 -8.47737e-06 0.000134465 -7.33084e-08 1.16387e-06)
(0.000604518 8.36688e-07 -8.5092e-06 0.000134733 -6.13817e-08 1.16746e-06)
(0.00060509 7.10598e-07 -8.54436e-06 0.000134967 -4.63555e-08 1.17102e-06)
(0.000605356 6.52538e-07 -8.57998e-06 0.000135153 -3.6805e-08 1.17492e-06)
(0.000605422 6.72342e-07 -8.61284e-06 0.000135307 -3.29152e-08 1.17904e-06)
(0.000605531 7.54534e-07 -8.63935e-06 0.000135459 -3.15807e-08 1.18301e-06)
(0.000605573 8.45263e-07 -8.65139e-06 0.000135613 -2.91021e-08 1.18619e-06)
(0.000605108 8.55092e-07 -8.63666e-06 0.000135749 -2.12448e-08 1.18774e-06)
(0.000604027 7.45486e-07 -8.59718e-06 0.000135848 -7.12793e-09 1.18758e-06)
(0.000602937 5.86742e-07 -8.56461e-06 0.000135899 7.14582e-09 1.18724e-06)
(0.000602392 4.51514e-07 -8.56501e-06 0.000135898 1.46338e-08 1.188e-06)
(0.000602267 3.56934e-07 -8.58028e-06 0.000135873 9.04474e-09 1.18884e-06)
(0.000602264 2.99513e-07 -8.5825e-06 0.00013586 -1.38309e-08 1.18828e-06)
(0.000602267 2.25701e-07 -8.57405e-06 0.000135862 -3.85744e-08 1.18705e-06)
(1.57091e-06 -3.14505e-10 -6.83951e-09 4.7964e-10 -1.14243e-09 1.01626e-08)
(9.00594e-06 -1.49102e-08 -3.47553e-08 2.75805e-08 -3.08988e-08 7.34955e-08)
(1.72613e-05 -6.1472e-08 -6.1472e-08 1.73439e-07 -1.34116e-07 1.73439e-07)
(2.5487e-05 -1.35341e-07 -8.62278e-08 5.63803e-07 -3.32348e-07 2.90592e-07)
(3.44988e-05 -2.42356e-07 -1.14397e-07 1.3295e-06 -6.24504e-07 4.10561e-07)
(4.52664e-05 -4.10343e-07 -1.61762e-07 2.58439e-06 -9.94513e-07 5.25227e-07)
(5.86062e-05 -6.68866e-07 -2.61949e-07 4.4088e-06 -1.41786e-06 6.31595e-07)
(7.51704e-05 -1.02363e-06 -4.64713e-07 6.84222e-06 -1.86732e-06 7.30284e-07)
(9.54414e-05 -1.43418e-06 -8.25632e-07 9.88228e-06 -2.31769e-06 8.2425e-07)
(0.000119704 -1.8095e-06 -1.38965e-06 1.34942e-05 -2.75008e-06 9.16984e-07)
(0.00014801 -2.01897e-06 -2.17834e-06 1.76241e-05 -3.15297e-06 1.01081e-06)
(0.000180177 -1.91366e-06 -3.18546e-06 2.22123e-05 -3.52091e-06 1.10607e-06)
(0.000215758 -1.35073e-06 -4.37479e-06 2.71972e-05 -3.85198e-06 1.20069e-06)
(0.000254102 -2.21403e-07 -5.68985e-06 3.25231e-05 -4.14531e-06 1.29143e-06)
(0.000294466 1.54228e-06 -7.06594e-06 3.81422e-05 -4.39986e-06 1.37482e-06)
(0.00033603 3.95273e-06 -8.43767e-06 4.40092e-05 -4.61306e-06 1.44781e-06)
(0.000377993 6.97401e-06 -9.74872e-06 5.00794e-05 -4.78175e-06 1.5086e-06)
(0.000419622 1.05332e-05 -1.09536e-05 5.63098e-05 -4.90267e-06 1.55665e-06)
(0.00046031 1.45246e-05 -1.2025e-05 6.26544e-05 -4.97351e-06 1.59296e-06)
(0.000499542 1.88274e-05 -1.29457e-05 6.9066e-05 -4.99304e-06 1.61914e-06)
(0.000536947 2.33121e-05 -1.3711e-05 7.5497e-05 -4.962e-06 1.63716e-06)
(0.000572233 2.78504e-05 -1.43238e-05 8.18971e-05 -4.88209e-06 1.64908e-06)
(0.000605258 3.23249e-05 -1.47973e-05 8.82193e-05 -4.75602e-06 1.65701e-06)
(0.000635921 3.66276e-05 -1.51469e-05 9.44142e-05 -4.58781e-06 1.66315e-06)
(0.000664214 4.067e-05 -1.53901e-05 0.000100439 -4.38281e-06 1.66973e-06)
(0.000690178 4.43779e-05 -1.55456e-05 0.000106254 -4.14729e-06 1.67857e-06)
(0.000713927 4.76979e-05 -1.56337e-05 0.000111828 -3.88833e-06 1.69098e-06)
(0.000735595 5.05907e-05 -1.56717e-05 0.000117132 -3.61281e-06 1.7077e-06)
(0.000755351 5.30363e-05 -1.56741e-05 0.00012215 -3.32715e-06 1.72885e-06)
(0.000773374 5.50262e-05 -1.56559e-05 0.00012687 -3.03759e-06 1.75464e-06)
(0.000789883 5.65717e-05 -1.56334e-05 0.00013129 -2.74964e-06 1.7856e-06)
(0.000805072 5.76921e-05 -1.56203e-05 0.00013541 -2.4692e-06 1.82204e-06)
(0.000819108 5.84236e-05 -1.56242e-05 0.000139243 -2.20232e-06 1.86383e-06)
(0.000832153 5.88048e-05 -1.56505e-05 0.000142808 -1.9544e-06 1.9106e-06)
(0.000844347 5.88708e-05 -1.56989e-05 0.000146128 -1.72819e-06 1.96119e-06)
(0.000855825 5.86561e-05 -1.57674e-05 0.000149234 -1.5255e-06 2.01436e-06)
(0.00086669 5.81856e-05 -1.5854e-05 0.00015215 -1.34586e-06 2.06966e-06)
(0.000877039 5.74805e-05 -1.59566e-05 0.000154903 -1.18767e-06 2.12699e-06)
(0.000886966 5.6558e-05 -1.60742e-05 0.000157516 -1.04949e-06 2.18621e-06)
(0.00089657 5.5432e-05 -1.62073e-05 0.00016001 -9.30035e-07 2.24714e-06)
(0.00090595 5.41177e-05 -1.6357e-05 0.000162403 -8.27673e-07 2.30949e-06)
(0.000915205 5.26327e-05 -1.6525e-05 0.000164709 -7.40044e-07 2.37278e-06)
(0.00092443 5.09959e-05 -1.67131e-05 0.000166942 -6.64596e-07 2.43656e-06)
(0.000933705 4.9228e-05 -1.69222e-05 0.000169112 -5.98378e-07 2.50069e-06)
(0.000943101 4.73512e-05 -1.71526e-05 0.000171226 -5.38345e-07 2.56515e-06)
(0.000952645 4.53852e-05 -1.74026e-05 0.000173292 -4.83321e-07 2.63022e-06)
(0.000962324 4.33461e-05 -1.76684e-05 0.000175316 -4.34055e-07 2.69647e-06)
(0.000972129 4.1249e-05 -1.79474e-05 0.000177304 -3.91552e-07 2.76447e-06)
(0.000982089 3.91031e-05 -1.82431e-05 0.000179266 -3.57226e-07 2.83487e-06)
(0.000992233 3.69189e-05 -1.85591e-05 0.000181209 -3.32641e-07 2.90814e-06)
(0.00100258 3.47093e-05 -1.88915e-05 0.000183144 -3.19345e-07 2.98329e-06)
(0.00101315 3.24921e-05 -1.92309e-05 0.000185087 -3.18915e-07 3.05823e-06)
(0.00102396 3.02807e-05 -1.95713e-05 0.000187051 -3.31048e-07 3.13154e-06)
(0.0010351 2.80819e-05 -1.99145e-05 0.000189047 -3.5108e-07 3.20341e-06)
(0.00104664 2.59016e-05 -2.02636e-05 0.000191084 -3.74003e-07 3.27437e-06)
(0.00105861 2.3751e-05 -2.06246e-05 0.000193163 -3.98633e-07 3.34612e-06)
(0.001071 2.16446e-05 -2.10051e-05 0.000195278 -4.26005e-07 3.42104e-06)
(0.0010838 1.95959e-05 -2.14074e-05 0.000197426 -4.56801e-07 3.49967e-06)
(0.00109702 1.76164e-05 -2.18229e-05 0.000199608 -4.90864e-07 3.57846e-06)
(0.00111068 1.57168e-05 -2.22411e-05 0.000201828 -5.27599e-07 3.65359e-06)
(0.00112469 1.3894e-05 -2.26563e-05 0.000204078 -5.63274e-07 3.72512e-06)
(0.00113895 1.21374e-05 -2.30651e-05 0.000206349 -5.92202e-07 3.7954e-06)
(0.00115337 1.04376e-05 -2.34662e-05 0.000208627 -6.1084e-07 3.86607e-06)
(0.00116793 8.78866e-06 -2.38647e-05 0.0002109 -6.21074e-07 3.9368e-06)
(0.00118262 7.18633e-06 -2.42662e-05 0.000213152 -6.25657e-07 4.00705e-06)
(0.00119743 5.63573e-06 -2.46737e-05 0.000215376 -6.27402e-07 4.0772e-06)
(0.0012124 4.14969e-06 -2.50887e-05 0.000217569 -6.29193e-07 4.14826e-06)
(0.00122753 2.74351e-06 -2.55122e-05 0.000219731 -6.33672e-07 4.22085e-06)
(0.00124283 1.43798e-06 -2.5946e-05 0.000221869 -6.42568e-07 4.29435e-06)
(0.00125831 2.55474e-07 -2.63915e-05 0.00022399 -6.57288e-07 4.36787e-06)
(0.00127393 -7.82919e-07 -2.68475e-05 0.000226099 -6.75748e-07 4.44024e-06)
(0.00128963 -1.65772e-06 -2.73105e-05 0.000228195 -6.92694e-07 4.51008e-06)
(0.00130531 -2.3517e-06 -2.77757e-05 0.000230277 -7.03923e-07 4.57653e-06)
(0.00132076 -2.85903e-06 -2.82336e-05 0.00023234 -7.10467e-07 4.64119e-06)
(0.00133575 -3.17733e-06 -2.86733e-05 0.000234379 -7.14766e-07 4.70627e-06)
(0.00135016 -3.32676e-06 -2.90882e-05 0.000236396 -7.1993e-07 4.77251e-06)
(0.00136399 -3.35417e-06 -2.94767e-05 0.000238396 -7.29848e-07 4.83891e-06)
(0.0013773 -3.30707e-06 -2.98381e-05 0.000240388 -7.47436e-07 4.90437e-06)
(0.00139017 -3.22114e-06 -3.01757e-05 0.000242379 -7.69377e-07 4.96804e-06)
(0.00140272 -3.12858e-06 -3.04937e-05 0.000244375 -7.90036e-07 5.0291e-06)
(0.00141494 -3.05795e-06 -3.07934e-05 0.000246374 -8.03467e-07 5.08677e-06)
(0.00142657 -3.03167e-06 -3.10703e-05 0.000248354 -8.03329e-07 5.14032e-06)
(0.00143741 -3.06759e-06 -3.13223e-05 0.000250292 -7.84554e-07 5.18938e-06)
(0.00144756 -3.14888e-06 -3.15696e-05 0.000252158 -7.53116e-07 5.23663e-06)
(0.00145727 -3.2422e-06 -3.18434e-05 0.000253922 -7.20241e-07 5.28618e-06)
(0.00146669 -3.32352e-06 -3.21534e-05 0.000255573 -6.94027e-07 5.33921e-06)
(0.00147572 -3.38805e-06 -3.24676e-05 0.00025715 -6.76084e-07 5.39106e-06)
(0.00148424 -3.43416e-06 -3.27525e-05 0.000258691 -6.66881e-07 5.43696e-06)
(0.0014923 -3.47048e-06 -3.30147e-05 0.000260202 -6.62705e-07 5.47875e-06)
(0.00150003 -3.51149e-06 -3.32839e-05 0.000261671 -6.5744e-07 5.52202e-06)
(0.00150752 -3.55611e-06 -3.35752e-05 0.00026309 -6.48043e-07 5.56927e-06)
(0.0015148 -3.56795e-06 -3.38707e-05 0.00026447 -6.38596e-07 5.61587e-06)
(0.0015219 -3.50825e-06 -3.41496e-05 0.000265819 -6.33302e-07 5.65674e-06)
(0.001529 -3.37319e-06 -3.44159e-05 0.000267127 -6.26388e-07 5.6934e-06)
(0.00153639 -3.18021e-06 -3.46883e-05 0.000268371 -6.05938e-07 5.73144e-06)
(0.00154413 -2.93115e-06 -3.49715e-05 0.000269541 -5.69099e-07 5.77331e-06)
(0.00155175 -2.59134e-06 -3.52368e-05 0.000270662 -5.34084e-07 5.81396e-06)
(0.00155875 -2.12608e-06 -3.54557e-05 0.000271764 -5.19675e-07 5.84803e-06)
(0.00156521 -1.55741e-06 -3.56515e-05 0.000272842 -5.17785e-07 5.87771e-06)
(0.00157157 -9.40124e-07 -3.58775e-05 0.000273877 -5.0486e-07 5.90961e-06)
(0.00157785 -3.05714e-07 -3.61485e-05 0.00027486 -4.71631e-07 5.9468e-06)
(0.00158328 3.62196e-07 -3.64019e-05 0.000275802 -4.37668e-07 5.98516e-06)
(0.00158716 1.07821e-06 -3.65752e-05 0.000276718 -4.23174e-07 6.02014e-06)
(0.00158988 1.80045e-06 -3.66805e-05 0.000277626 -4.25178e-07 6.05087e-06)
(0.00159234 2.46098e-06 -3.67637e-05 0.000278547 -4.30169e-07 6.07811e-06)
(0.00159489 2.99447e-06 -3.68472e-05 0.000279478 -4.25838e-07 6.10304e-06)
(0.00159706 3.34095e-06 -3.69197e-05 0.00028038 -4.01812e-07 6.12736e-06)
(0.00159844 3.46595e-06 -3.69724e-05 0.000281217 -3.53628e-07 6.15242e-06)
(0.00159911 3.45424e-06 -3.70187e-05 0.000281977 -3.03543e-07 6.17764e-06)
(0.00159932 3.4197e-06 -3.70779e-05 0.000282654 -2.79907e-07 6.20186e-06)
(0.00159941 3.36445e-06 -3.71561e-05 0.000283259 -2.77818e-07 6.22406e-06)
(0.00159986 3.19636e-06 -3.72485e-05 0.000283813 -2.64274e-07 6.24329e-06)
(0.00160082 2.89134e-06 -3.73527e-05 0.000284327 -2.22359e-07 6.25985e-06)
(0.00160176 2.58608e-06 -3.74728e-05 0.000284776 -1.73976e-07 6.27688e-06)
(0.00160218 2.42121e-06 -3.76101e-05 0.000285141 -1.42933e-07 6.29716e-06)
(0.00160219 2.40897e-06 -3.77397e-05 0.000285461 -1.29373e-07 6.31835e-06)
(0.00160212 2.50869e-06 -3.7827e-05 0.000285794 -1.2409e-07 6.33621e-06)
(0.00160179 2.61788e-06 -3.78496e-05 0.000286141 -1.15184e-07 6.348e-06)
(0.00160054 2.57672e-06 -3.77971e-05 0.000286448 -8.82878e-08 6.35247e-06)
(0.00159824 2.31078e-06 -3.76879e-05 0.000286672 -3.948e-08 6.35102e-06)
(0.00159596 1.92831e-06 -3.75991e-05 0.000286796 1.33185e-08 6.35049e-06)
(0.00159466 1.5429e-06 -3.75926e-05 0.000286821 4.70499e-08 6.35605e-06)
(0.00159416 1.18177e-06 -3.76235e-05 0.000286793 2.94071e-08 6.36204e-06)
(0.00159399 8.41778e-07 -3.76231e-05 0.000286767 -6.56644e-08 6.36075e-06)
(0.00159393 4.57554e-07 -3.75986e-05 0.00028676 -1.71648e-07 6.35545e-06)
(1.94668e-06 -4.88012e-10 -1.21951e-08 7.69221e-10 -3.29895e-09 3.39928e-08)
(1.22256e-05 -2.01619e-08 -6.96393e-08 4.64324e-08 -8.09436e-08 2.43988e-07)
(2.5487e-05 -8.62278e-08 -1.35341e-07 2.90592e-07 -3.32348e-07 5.63803e-07)
(4.04047e-05 -2.01037e-07 -2.01037e-07 9.31561e-07 -7.96978e-07 9.31561e-07)
(5.78238e-05 -3.79325e-07 -2.7783e-07 2.16372e-06 -1.46715e-06 1.30525e-06)
(7.90203e-05 -6.59634e-07 -4.09598e-07 4.14896e-06 -2.30526e-06 1.6606e-06)
(0.000105198 -1.07289e-06 -6.84678e-07 6.99578e-06 -3.25749e-06 1.98852e-06)
(0.000137379 -1.6045e-06 -1.22551e-06 1.07518e-05 -4.26615e-06 2.29138e-06)
(0.000176314 -2.16656e-06 -2.16044e-06 1.54043e-05 -5.27906e-06 2.57838e-06)
(0.000222414 -2.59759e-06 -3.58677e-06 2.0896e-05 -6.25739e-06 2.85979e-06)