/*--------------------------------*- C++ -*----------------------------------*\
  =========                 |
  \\      /  F ield         | OpenFOAM: The Open Source CFD Toolbox
   \\    /   O peration     | Website:  https://openfoam.org
    \\  /    A nd           | Version:  6
     \\/     M anipulation  |
\*---------------------------------------------------------------------------*/
FoamFile
{
    version     2.0;
    format      ascii;
    class       volSymmTensorField;
    location    "99.27";
    object      turbulenceProperties:R;
}
// * * * * * * * * * * * * * * * * * * * * * * * * * * * * * * * * * * * * * //

dimensions      [0 2 -2 0 0 0 0];

internalField   nonuniform List<symmTensor> 
15625
(
(0.000290826 -5.365e-06 -5.365e-06 0.000290826 2.95407e-18 0.000290826)
(0.000336397 -4.80645e-06 -1.50835e-05 0.000336397 2.03615e-18 0.000336397)
(0.000423004 -5.00095e-06 -2.66243e-05 0.000423004 1.42951e-18 0.000423004)
(0.000535167 -5.2999e-06 -4.02259e-05 0.000535167 1.23104e-18 0.000535167)
(0.000659449 -5.53599e-06 -5.53709e-05 0.000659449 1.03921e-18 0.000659449)
(0.000786687 -5.65262e-06 -7.13963e-05 0.000786687 8.82603e-19 0.000786687)
(0.000911407 -5.65241e-06 -8.77434e-05 0.000911407 7.65417e-19 0.000911407)
(0.00103075 -5.56256e-06 -0.000104013 0.00103075 6.76978e-19 0.00103075)
(0.00114348 -5.41394e-06 -0.000119955 0.00114348 6.08744e-19 0.00114348)
(0.00124933 -5.23241e-06 -0.000135426 0.00124933 5.54333e-19 0.00124933)
(0.00134851 -5.03592e-06 -0.000150358 0.00134851 5.08747e-19 0.00134851)
(0.00144149 -4.8356e-06 -0.000164732 0.00144149 4.70731e-19 0.00144149)
(0.00152879 -4.63907e-06 -0.000178551 0.00152879 4.38226e-19 0.00152879)
(0.00161097 -4.45017e-06 -0.000191836 0.00161097 4.09902e-19 0.00161097)
(0.00168853 -4.2701e-06 -0.000204612 0.00168853 3.85819e-19 0.00168853)
(0.00176191 -4.10001e-06 -0.000216908 0.00176191 3.65111e-19 0.00176191)
(0.00183153 -3.93974e-06 -0.000228756 0.00183153 3.47605e-19 0.00183153)
(0.00189773 -3.78881e-06 -0.000240182 0.00189773 3.32734e-19 0.00189773)
(0.00196083 -3.64725e-06 -0.000251213 0.00196083 3.18469e-19 0.00196083)
(0.00202109 -3.51348e-06 -0.000261873 0.00202109 3.05518e-19 0.00202109)
(0.00207875 -3.3875e-06 -0.000272185 0.00207875 2.94941e-19 0.00207875)
(0.00213402 -3.26903e-06 -0.00028217 0.00213402 2.857e-19 0.00213402)
(0.00218709 -3.15704e-06 -0.000291848 0.00218709 2.7839e-19 0.00218709)
(0.00223811 -3.05113e-06 -0.000301234 0.00223811 2.71187e-19 0.00223811)
(0.00228725 -2.95077e-06 -0.000310346 0.00228725 2.62951e-19 0.00228725)
(0.00233461 -2.85534e-06 -0.000319198 0.00233461 2.54263e-19 0.00233461)
(0.00238033 -2.76497e-06 -0.000327803 0.00238033 2.46184e-19 0.00238033)
(0.0024245 -2.67916e-06 -0.000336174 0.0024245 2.39953e-19 0.0024245)
(0.00246723 -2.59705e-06 -0.000344323 0.00246723 2.33721e-19 0.00246723)
(0.00250859 -2.51891e-06 -0.00035226 0.00250859 2.29355e-19 0.00250859)
(0.00254867 -2.44465e-06 -0.000359994 0.00254867 2.25179e-19 0.00254867)
(0.00258754 -2.37331e-06 -0.000367535 0.00258754 2.21033e-19 0.00258754)
(0.00262527 -2.30504e-06 -0.000374892 0.00262527 2.17465e-19 0.00262527)
(0.0026619 -2.24028e-06 -0.000382072 0.0026619 2.13302e-19 0.0026619)
(0.00269751 -2.17767e-06 -0.000389082 0.00269751 2.09522e-19 0.00269751)
(0.00273213 -2.11761e-06 -0.000395931 0.00273213 2.0439e-19 0.00273213)
(0.00276583 -2.0602e-06 -0.000402622 0.00276583 1.99001e-19 0.00276583)
(0.00279863 -2.00463e-06 -0.000409164 0.00279863 1.92774e-19 0.00279863)
(0.00283059 -1.95125e-06 -0.000415561 0.00283059 1.88147e-19 0.00283059)
(0.00286173 -1.90014e-06 -0.000421819 0.00286173 1.90058e-19 0.00286173)
(0.00289209 -1.85106e-06 -0.000427943 0.00289209 1.92452e-19 0.00289209)
(0.00292171 -1.80315e-06 -0.000433937 0.00292171 1.90701e-19 0.00292171)
(0.00295061 -1.75705e-06 -0.000439805 0.00295061 1.88416e-19 0.00295061)
(0.00297883 -1.7128e-06 -0.000445554 0.00297883 1.87594e-19 0.00297883)
(0.00300639 -1.66984e-06 -0.000451183 0.00300639 1.86669e-19 0.00300639)
(0.00303331 -1.62819e-06 -0.000456699 0.00303331 1.85054e-19 0.00303331)
(0.00305963 -1.58789e-06 -0.000462106 0.00305963 1.85347e-19 0.00305963)
(0.00308535 -1.54924e-06 -0.000467405 0.00308535 1.86264e-19 0.00308535)
(0.00311049 -1.51139e-06 -0.000472601 0.00311049 1.86867e-19 0.00311049)
(0.00313509 -1.47493e-06 -0.000477695 0.00313509 1.86569e-19 0.00313509)
(0.00315915 -1.4393e-06 -0.00048269 0.00315915 1.83407e-19 0.00315915)
(0.0031827 -1.40481e-06 -0.000487591 0.0031827 1.8295e-19 0.0031827)
(0.00320575 -1.37146e-06 -0.000492398 0.00320575 1.85159e-19 0.00320575)
(0.00322831 -1.33868e-06 -0.000497114 0.00322831 1.82549e-19 0.00322831)
(0.00325039 -1.30707e-06 -0.000501743 0.00325039 1.80912e-19 0.00325039)
(0.00327202 -1.27604e-06 -0.000506283 0.00327202 1.77646e-19 0.00327202)
(0.00329321 -1.24591e-06 -0.00051074 0.00329321 1.72213e-19 0.00329321)
(0.00331395 -1.21696e-06 -0.000515114 0.00331395 1.68905e-19 0.00331395)
(0.00333428 -1.18832e-06 -0.000519406 0.00333428 1.66122e-19 0.00333428)
(0.00335419 -1.16031e-06 -0.000523619 0.00335419 1.63561e-19 0.00335419)
(0.00337371 -1.1332e-06 -0.000527755 0.00337371 1.59226e-19 0.00337371)
(0.00339283 -1.10672e-06 -0.000531814 0.00339283 1.56796e-19 0.00339283)
(0.00341156 -1.08087e-06 -0.000535799 0.00341156 1.50561e-19 0.00341156)
(0.00342992 -1.05536e-06 -0.000539711 0.00342992 1.4346e-19 0.00342992)
(0.00344791 -1.03077e-06 -0.000543549 0.00344791 1.43229e-19 0.00344791)
(0.00346555 -1.00654e-06 -0.000547319 0.00346555 1.41315e-19 0.00346555)
(0.00348283 -9.82651e-07 -0.000551016 0.00348283 1.36276e-19 0.00348283)
(0.00349976 -9.59406e-07 -0.000554646 0.00349976 1.27387e-19 0.00349976)
(0.00351635 -9.36522e-07 -0.000558207 0.00351635 1.17183e-19 0.00351635)
(0.00353262 -9.14277e-07 -0.000561703 0.00353262 1.09111e-19 0.00353262)
(0.00354855 -8.9212e-07 -0.000565133 0.00354855 1.03804e-19 0.00354855)
(0.00356416 -8.70601e-07 -0.000568497 0.00356416 1.05505e-19 0.00356416)
(0.00357945 -8.49724e-07 -0.000571796 0.00357945 1.0475e-19 0.00357945)
(0.00359443 -8.28935e-07 -0.000575032 0.00359443 1.013e-19 0.00359443)
(0.0036091 -8.08514e-07 -0.000578206 0.0036091 1.01433e-19 0.0036091)
(0.00362347 -7.88458e-07 -0.000581317 0.00362347 1.01632e-19 0.00362347)
(0.00363753 -7.68501e-07 -0.000584368 0.00363753 9.94976e-20 0.00363753)
(0.0036513 -7.4918e-07 -0.000587353 0.0036513 9.3721e-20 0.0036513)
(0.00366477 -7.30231e-07 -0.000590284 0.00366477 8.99161e-20 0.00366477)
(0.00367795 -7.11108e-07 -0.000593149 0.00367795 9.27212e-20 0.00367795)
(0.00369085 -6.92623e-07 -0.000595957 0.00369085 9.20841e-20 0.00369085)
(0.00370346 -6.74505e-07 -0.000598705 0.00370346 8.75185e-20 0.00370346)
(0.00371579 -6.5649e-07 -0.000601399 0.00371579 8.01544e-20 0.00371579)
(0.00372784 -6.38578e-07 -0.000604027 0.00372784 7.18831e-20 0.00372784)
(0.00373961 -6.2077e-07 -0.000606603 0.00373961 6.8593e-20 0.00373961)
(0.00375111 -6.03593e-07 -0.000609115 0.00375111 6.6342e-20 0.00375111)
(0.00376232 -5.86522e-07 -0.000611574 0.00376232 6.37216e-20 0.00376232)
(0.00377327 -5.69297e-07 -0.00061397 0.00377327 5.70994e-20 0.00377327)
(0.00378395 -5.52698e-07 -0.000616313 0.00378395 4.68889e-20 0.00378395)
(0.00379435 -5.36209e-07 -0.000618596 0.00379435 4.30995e-20 0.00379435)
(0.00380448 -5.19571e-07 -0.000620823 0.00380448 4.87175e-20 0.00380448)
(0.00381435 -5.03299e-07 -0.000622993 0.00381435 5.32511e-20 0.00381435)
(0.00382395 -4.87141e-07 -0.000625102 0.00382395 5.14167e-20 0.00382395)
(0.00383327 -4.71093e-07 -0.000627159 0.00383327 5.43102e-20 0.00383327)
(0.00384233 -4.55411e-07 -0.000629154 0.00384233 5.74016e-20 0.00384233)
(0.00385113 -4.39592e-07 -0.000631093 0.00385113 4.89462e-20 0.00385113)
(0.00385965 -4.24136e-07 -0.000632974 0.00385965 3.81515e-20 0.00385965)
(0.00386791 -4.08549e-07 -0.000634798 0.00386791 3.46561e-20 0.00386791)
(0.00387591 -3.93076e-07 -0.00063656 0.00387591 3.62471e-20 0.00387591)
(0.00388363 -3.7797e-07 -0.000638268 0.00388363 3.37346e-20 0.00388363)
(0.00389108 -3.62735e-07 -0.000639914 0.00389108 3.37108e-20 0.00389108)
(0.00389826 -3.47621e-07 -0.000641507 0.00389826 2.67437e-20 0.00389826)
(0.00390517 -3.32383e-07 -0.000643035 0.00390517 1.67711e-20 0.00390517)
(0.00391181 -3.17512e-07 -0.000644505 0.00391181 1.83161e-20 0.00391181)
(0.00391818 -3.02763e-07 -0.000645917 0.00391818 1.82243e-20 0.00391818)
(0.00392427 -2.87898e-07 -0.000647264 0.00392427 1.53029e-20 0.00392427)
(0.00393008 -2.7292e-07 -0.000648555 0.00393008 2.03752e-20 0.00393008)
(0.00393561 -2.5807e-07 -0.000649783 0.00393561 2.7297e-20 0.00393561)
(0.00394087 -2.43586e-07 -0.00065095 0.00394087 2.73262e-20 0.00394087)
(0.00394584 -2.28995e-07 -0.000652052 0.00394584 2.50811e-20 0.00394584)
(0.00395053 -2.14067e-07 -0.000653092 0.00395053 2.59254e-20 0.00395053)
(0.00395493 -1.99506e-07 -0.00065407 0.00395493 2.36288e-20 0.00395493)
(0.00395903 -1.8485e-07 -0.000654981 0.00395903 1.25343e-20 0.00395903)
(0.00396285 -1.70099e-07 -0.000655832 0.00396285 1.66939e-20 0.00396285)
(0.00396637 -1.55717e-07 -0.000656614 0.00396637 2.5423e-20 0.00396637)
(0.00396959 -1.41018e-07 -0.000657331 0.00396959 2.61837e-20 0.00396959)
(0.00397251 -1.26234e-07 -0.000657978 0.00397251 2.44893e-20 0.00397251)
(0.00397511 -1.11372e-07 -0.000658559 0.00397511 1.45085e-20 0.00397511)
(0.00397741 -9.68802e-08 -0.000659071 0.00397741 2.21946e-21 0.00397741)
(0.0039794 -8.20933e-08 -0.000659513 0.0039794 -1.3618e-21 0.0039794)
(0.00398107 -6.72322e-08 -0.000659883 0.00398107 -1.53228e-21 0.00398107)
(0.00398241 -5.25298e-08 -0.000660183 0.00398241 -3.41552e-21 0.00398241)
(0.00398343 -3.75417e-08 -0.000660408 0.00398343 8.69696e-22 0.00398343)
(0.00398411 -2.2498e-08 -0.000660563 0.00398411 -4.31691e-21 0.00398411)
(0.00398445 -7.39905e-09 -0.000660637 0.00398445 -4.89985e-21 0.00398445)
(0.000336397 -1.50835e-05 -4.80645e-06 0.000336397 2.03485e-18 0.000336397)
(0.000277954 -1.33214e-05 -1.33214e-05 0.000277954 -2.05361e-18 0.000277954)
(0.000292652 -1.33619e-05 -2.30156e-05 0.000292652 -1.12033e-18 0.000292652)
(0.000341191 -1.36396e-05 -3.40798e-05 0.000341191 -2.63682e-19 0.000341191)
(0.000405113 -1.39282e-05 -4.656e-05 0.000405113 7.33869e-20 0.000405113)
(0.000474636 -1.40517e-05 -6.00156e-05 0.000474636 2.24166e-19 0.000474636)
(0.000544501 -1.39588e-05 -7.3884e-05 0.000544501 2.94241e-19 0.000544501)
(0.000612043 -1.36825e-05 -8.77338e-05 0.000612043 3.18889e-19 0.000612043)
(0.000676087 -1.32818e-05 -0.000101296 0.000676087 3.21469e-19 0.000676087)
(0.00073626 -1.28108e-05 -0.00011443 0.00073626 3.13393e-19 0.00073626)
(0.000792627 -1.231e-05 -0.000127074 0.000792627 2.99739e-19 0.000792627)
(0.000845427 -1.18053e-05 -0.000139214 0.000845427 2.8489e-19 0.000845427)
(0.000894973 -1.13121e-05 -0.000150861 0.000894973 2.7007e-19 0.000894973)
(0.000941587 -1.0839e-05 -0.000162039 0.000941587 2.56017e-19 0.000941587)
(0.00098558 -1.03897e-05 -0.000172774 0.00098558 2.42557e-19 0.00098558)
(0.00102722 -9.9659e-06 -0.000183098 0.00102722 2.29963e-19 0.00102722)
(0.00106674 -9.5674e-06 -0.000193037 0.00106674 2.19689e-19 0.00106674)
(0.00110435 -9.1929e-06 -0.00020262 0.00110435 2.11184e-19 0.00110435)
(0.00114024 -8.84098e-06 -0.000211869 0.00114024 2.00771e-19 0.00114024)
(0.00117455 -8.51026e-06 -0.000220808 0.00117455 1.90873e-19 0.00117455)
(0.00120744 -8.19947e-06 -0.000229459 0.00120744 1.84695e-19 0.00120744)
(0.00123901 -7.9067e-06 -0.000237838 0.00123901 1.78552e-19 0.00123901)
(0.00126937 -7.63028e-06 -0.000245964 0.00126937 1.71075e-19 0.00126937)
(0.00129862 -7.3692e-06 -0.000253849 0.00129862 1.66143e-19 0.00129862)
(0.00132683 -7.12263e-06 -0.000261509 0.00132683 1.6223e-19 0.00132683)
(0.00135409 -6.88915e-06 -0.000268958 0.00135409 1.52664e-19 0.00135409)
(0.00138045 -6.66731e-06 -0.000276205 0.00138045 1.46743e-19 0.00138045)
(0.00140597 -6.4567e-06 -0.000283266 0.00140597 1.43434e-19 0.00140597)
(0.00143071 -6.2567e-06 -0.000290141 0.00143071 1.38334e-19 0.00143071)
(0.00145471 -6.06597e-06 -0.000296848 0.00145471 1.34669e-19 0.00145471)
(0.00147802 -5.88427e-06 -0.000303392 0.00147802 1.31037e-19 0.00147802)
(0.00150067 -5.71063e-06 -0.00030978 0.00150067 1.29788e-19 0.00150067)
(0.00152271 -5.54492e-06 -0.000316017 0.00152271 1.26089e-19 0.00152271)
(0.00154416 -5.38665e-06 -0.000322117 0.00154416 1.22394e-19 0.00154416)
(0.00156505 -5.23465e-06 -0.000328076 0.00156505 1.20569e-19 0.00156505)
(0.00158542 -5.08923e-06 -0.000333907 0.00158542 1.15882e-19 0.00158542)
(0.00160528 -4.94974e-06 -0.000339615 0.00160528 1.11433e-19 0.00160528)
(0.00162466 -4.81552e-06 -0.000345198 0.00162466 1.07597e-19 0.00162466)
(0.00164358 -4.68645e-06 -0.000350668 0.00164358 1.03953e-19 0.00164358)
(0.00166207 -4.56272e-06 -0.000356028 0.00166207 1.07141e-19 0.00166207)
(0.00168013 -4.44328e-06 -0.000361279 0.00168013 1.06856e-19 0.00168013)
(0.00169779 -4.32794e-06 -0.000366426 0.00169779 1.05366e-19 0.00169779)
(0.00171506 -4.21715e-06 -0.000371474 0.00171506 1.05403e-19 0.00171506)
(0.00173196 -4.10978e-06 -0.000376425 0.00173196 1.0278e-19 0.00173196)
(0.00174851 -4.00625e-06 -0.000381279 0.00174851 1.03664e-19 0.00174851)
(0.0017647 -3.90663e-06 -0.000386046 0.0017647 1.00322e-19 0.0017647)
(0.00178056 -3.80949e-06 -0.000390722 0.00178056 1.00012e-19 0.00178056)
(0.0017961 -3.71579e-06 -0.000395311 0.0017961 1.02148e-19 0.0017961)
(0.00181133 -3.62532e-06 -0.000399818 0.00181133 1.01704e-19 0.00181133)
(0.00182625 -3.53687e-06 -0.000404243 0.00182625 1.00561e-19 0.00182625)
(0.00184089 -3.45175e-06 -0.000408593 0.00184089 9.96605e-20 0.00184089)
(0.00185523 -3.36907e-06 -0.000412863 0.00185523 1.01412e-19 0.00185523)
(0.00186931 -3.28825e-06 -0.000417054 0.00186931 9.96295e-20 0.00186931)
(0.00188311 -3.21026e-06 -0.000421177 0.00188311 9.50701e-20 0.00188311)
(0.00189665 -3.13422e-06 -0.000425225 0.00189665 9.37913e-20 0.00189665)
(0.00190994 -3.05984e-06 -0.000429205 0.00190994 9.1198e-20 0.00190994)
(0.00192298 -2.98805e-06 -0.000433113 0.00192298 8.94729e-20 0.00192298)
(0.00193577 -2.91799e-06 -0.000436956 0.00193577 8.90411e-20 0.00193577)
(0.00194833 -2.84937e-06 -0.000440733 0.00194833 8.67574e-20 0.00194833)
(0.00196066 -2.78279e-06 -0.000444443 0.00196066 8.39054e-20 0.00196066)
(0.00197277 -2.7177e-06 -0.000448092 0.00197277 8.17383e-20 0.00197277)
(0.00198465 -2.65409e-06 -0.000451677 0.00198465 8.04392e-20 0.00198465)
(0.00199631 -2.59198e-06 -0.000455201 0.00199631 7.5879e-20 0.00199631)
(0.00200775 -2.53109e-06 -0.000458661 0.00200775 7.51934e-20 0.00200775)
(0.00201899 -2.47172e-06 -0.000462065 0.00201899 7.83012e-20 0.00201899)
(0.00203003 -2.41389e-06 -0.00046541 0.00203003 7.20724e-20 0.00203003)
(0.00204086 -2.35701e-06 -0.000468697 0.00204086 6.38525e-20 0.00204086)
(0.00205149 -2.30108e-06 -0.000471926 0.00205149 6.24703e-20 0.00205149)
(0.00206193 -2.24672e-06 -0.000475097 0.00206193 5.97067e-20 0.00206193)
(0.00207217 -2.19334e-06 -0.000478217 0.00207217 5.24815e-20 0.00207217)
(0.00208223 -2.14063e-06 -0.000481276 0.00208223 4.71252e-20 0.00208223)
(0.00209209 -2.08921e-06 -0.000484283 0.00209209 5.3937e-20 0.00209209)
(0.00210177 -2.03849e-06 -0.000487234 0.00210177 5.67319e-20 0.00210177)
(0.00211126 -1.98877e-06 -0.000490132 0.00211126 4.91127e-20 0.00211126)
(0.00212057 -1.94092e-06 -0.000492976 0.00212057 4.89371e-20 0.00212057)
(0.0021297 -1.8935e-06 -0.000495771 0.0021297 5.09159e-20 0.0021297)
(0.00213865 -1.8436e-06 -0.000498508 0.00213865 4.97882e-20 0.00213865)
(0.00214743 -1.79761e-06 -0.0005012 0.00214743 4.77156e-20 0.00214743)
(0.00215603 -1.7518e-06 -0.000503831 0.00215603 4.77614e-20 0.00215603)
(0.00216445 -1.70611e-06 -0.000506416 0.00216445 4.69308e-20 0.00216445)
(0.00217271 -1.66348e-06 -0.000508949 0.00217271 4.51536e-20 0.00217271)
(0.00218079 -1.62099e-06 -0.000511431 0.00218079 4.72035e-20 0.00218079)
(0.0021887 -1.57583e-06 -0.000513861 0.0021887 4.0719e-20 0.0021887)
(0.00219643 -1.53367e-06 -0.000516238 0.00219643 3.40067e-20 0.00219643)
(0.00220401 -1.49172e-06 -0.000518566 0.00220401 3.50829e-20 0.00220401)
(0.00221141 -1.44991e-06 -0.000520847 0.00221141 3.70564e-20 0.00221141)
(0.00221863 -1.40834e-06 -0.000523072 0.00221863 3.61826e-20 0.00221863)
(0.0022257 -1.36691e-06 -0.000525249 0.0022257 3.0757e-20 0.0022257)
(0.00223259 -1.32852e-06 -0.000527375 0.00223259 2.30004e-20 0.00223259)
(0.00223932 -1.2875e-06 -0.000529451 0.00223932 2.11996e-20 0.00223932)
(0.00224588 -1.24948e-06 -0.000531476 0.00224588 2.79617e-20 0.00224588)
(0.00225227 -1.2089e-06 -0.00053345 0.00225227 2.98293e-20 0.00225227)
(0.00225849 -1.17127e-06 -0.000535369 0.00225849 2.99288e-20 0.00225849)
(0.00226455 -1.13388e-06 -0.000537244 0.00226455 3.27488e-20 0.00226455)
(0.00227043 -1.09394e-06 -0.000539064 0.00227043 3.50762e-20 0.00227043)
(0.00227615 -1.05697e-06 -0.00054083 0.00227615 3.38731e-20 0.00227615)
(0.0022817 -1.02022e-06 -0.000542548 0.0022817 2.89818e-20 0.0022817)
(0.00228708 -9.80999e-07 -0.000544213 0.00228708 2.26443e-20 0.00228708)
(0.00229229 -9.44695e-07 -0.000545825 0.00229229 2.31595e-20 0.00229229)
(0.00229733 -9.08653e-07 -0.000547387 0.00229733 2.42472e-20 0.00229733)
(0.00230219 -8.72818e-07 -0.000548895 0.00230219 2.61111e-20 0.00230219)
(0.00230689 -8.37251e-07 -0.000550348 0.00230689 2.16278e-20 0.00230689)
(0.00231141 -7.99259e-07 -0.000551752 0.00231141 1.54642e-20 0.00231141)
(0.00231575 -7.6418e-07 -0.000553095 0.00231575 1.94786e-20 0.00231575)
(0.00231991 -7.26736e-07 -0.000554388 0.00231991 1.20116e-20 0.00231991)
(0.0023239 -6.92157e-07 -0.000555629 0.0023239 7.56556e-21 0.0023239)
(0.00232771 -6.57866e-07 -0.000556809 0.00232771 1.75724e-20 0.00232771)
(0.00233134 -6.21226e-07 -0.000557938 0.00233134 2.36535e-20 0.00233134)
(0.00233479 -5.84888e-07 -0.00055901 0.00233479 1.95666e-20 0.00233479)
(0.00233805 -5.48826e-07 -0.000560024 0.00233805 1.49537e-20 0.00233805)
(0.00234113 -5.15619e-07 -0.00056098 0.00234113 1.62246e-20 0.00234113)
(0.00234402 -4.80153e-07 -0.000561875 0.00234402 1.65826e-20 0.00234402)
(0.00234672 -4.44973e-07 -0.000562714 0.00234672 9.88827e-21 0.00234672)
(0.00234923 -4.10112e-07 -0.000563497 0.00234923 1.43551e-20 0.00234923)
(0.00235154 -3.75545e-07 -0.000564215 0.00235154 2.10967e-20 0.00235154)
(0.00235366 -3.38817e-07 -0.000564873 0.00235366 1.76323e-20 0.00235366)
(0.00235558 -3.02403e-07 -0.000565473 0.00235558 1.55552e-20 0.00235558)
(0.00235729 -2.68815e-07 -0.000566007 0.00235729 1.31952e-20 0.00235729)
(0.00235881 -2.33089e-07 -0.000566477 0.00235881 2.36989e-21 0.00235881)
(0.00236012 -1.97712e-07 -0.000566885 0.00236012 -1.51747e-21 0.00236012)
(0.00236121 -1.62687e-07 -0.000567225 0.00236121 1.15048e-21 0.00236121)
(0.0023621 -1.2561e-07 -0.000567501 0.0023621 -1.63366e-21 0.0023621)
(0.00236277 -9.12983e-08 -0.000567707 0.00236277 2.551e-21 0.00236277)
(0.00236322 -5.49943e-08 -0.000567846 0.00236322 -2.23294e-21 0.00236322)
(0.00236345 -1.66735e-08 -0.000567919 0.00236345 -3.81002e-21 0.00236345)
(0.000423004 -2.66243e-05 -5.00095e-06 0.000423004 1.42737e-18 0.000423004)
(0.000292652 -2.30156e-05 -1.33619e-05 0.000292652 -1.12227e-18 0.000292652)
(0.000275223 -2.57787e-05 -2.57787e-05 0.000275223 -1.29016e-18 0.000275223)
(0.000308894 -2.93652e-05 -4.26842e-05 0.000308894 -9.36089e-19 0.000308894)
(0.000365823 -3.21554e-05 -6.25958e-05 0.000365823 -6.1059e-19 0.000365823)
(0.000432101 -3.38769e-05 -8.42712e-05 0.000432101 -3.45005e-19 0.000432101)
(0.000500556 -3.46323e-05 -0.000106683 0.000500556 -1.50491e-19 0.000500556)
(0.000567621 -3.46459e-05 -0.000129075 0.000567621 -2.53151e-20 0.000567621)
(0.000631689 -3.41501e-05 -0.000150985 0.000631689 4.7291e-20 0.000631689)
(0.000692187 -3.33355e-05 -0.000172175 0.000692187 8.93264e-20 0.000692187)
(0.000749053 -3.23404e-05 -0.000192545 0.000749053 1.14355e-19 0.000749053)
(0.00080248 -3.12556e-05 -0.000212077 0.00080248 1.20681e-19 0.00080248)
(0.000852747 -3.01402e-05 -0.000230792 0.000852747 1.19413e-19 0.000852747)
(0.000900147 -2.90306e-05 -0.000248732 0.000900147 1.15859e-19 0.000900147)
(0.000944973 -2.79474e-05 -0.000265939 0.000944973 1.06014e-19 0.000944973)
(0.000987487 -2.69033e-05 -0.00028247 0.000987487 9.55491e-20 0.000987487)
(0.00102792 -2.59038e-05 -0.000298375 0.00102792 8.60879e-20 0.00102792)
(0.00106647 -2.49509e-05 -0.000313689 0.00106647 7.85696e-20 0.00106647)
(0.00110333 -2.40454e-05 -0.00032846 0.00110333 6.69631e-20 0.00110333)
(0.00113865 -2.31857e-05 -0.00034272 0.00113865 5.79584e-20 0.00113865)
(0.00117255 -2.23704e-05 -0.00035651 0.00117255 5.75209e-20 0.00117255)
(0.00120515 -2.15974e-05 -0.000369857 0.00120515 5.16049e-20 0.00120515)
(0.00123657 -2.08617e-05 -0.000382789 0.00123657 3.97215e-20 0.00123657)
(0.00126689 -2.01631e-05 -0.000395339 0.00126689 3.17219e-20 0.00126689)
(0.00129618 -1.95013e-05 -0.000407516 0.00129618 2.53141e-20 0.00129618)
(0.00132453 -1.88702e-05 -0.000419357 0.00132453 1.41349e-20 0.00132453)
(0.00135201 -1.82741e-05 -0.000430866 0.00135201 6.97907e-21 0.00135201)
(0.00137865 -1.77004e-05 -0.000442081 0.00137865 -8.78225e-22 0.00137865)
(0.00140453 -1.71519e-05 -0.000452993 0.00140453 -3.87022e-21 0.00140453)
(0.00142967 -1.66367e-05 -0.00046364 0.00142967 -1.6252e-21 0.00142967)
(0.00145414 -1.61406e-05 -0.00047402 0.00145414 -3.97599e-21 0.00145414)
(0.00147796 -1.56599e-05 -0.00048415 0.00147796 -6.96282e-21 0.00147796)
(0.00150117 -1.52072e-05 -0.000494047 0.00150117 -1.89377e-20 0.00150117)
(0.0015238 -1.47728e-05 -0.000503716 0.0015238 -2.94759e-20 0.0015238)
(0.00154588 -1.43522e-05 -0.000513169 0.00154588 -3.32597e-20 0.00154588)
(0.00156744 -1.39579e-05 -0.000522416 0.00156744 -4.07466e-20 0.00156744)
(0.0015885 -1.35681e-05 -0.00053146 0.0015885 -4.89114e-20 0.0015885)
(0.00160909 -1.31949e-05 -0.000540314 0.00160909 -4.74977e-20 0.00160909)
(0.00162922 -1.28447e-05 -0.000548991 0.00162922 -4.17452e-20 0.00162922)
(0.00164891 -1.25011e-05 -0.00055749 0.00164891 -4.89036e-20 0.00164891)
(0.00166819 -1.21702e-05 -0.000565817 0.00166819 -6.07664e-20 0.00166819)
(0.00168707 -1.18527e-05 -0.000573982 0.00168707 -6.9797e-20 0.00168707)
(0.00170557 -1.15488e-05 -0.000581984 0.00170557 -7.53793e-20 0.00170557)
(0.00172369 -1.12476e-05 -0.000589838 0.00172369 -7.55852e-20 0.00172369)
(0.00174145 -1.09608e-05 -0.000597541 0.00174145 -7.87232e-20 0.00174145)
(0.00175887 -1.06888e-05 -0.000605107 0.00175887 -8.23936e-20 0.00175887)
(0.00177595 -1.04145e-05 -0.000612524 0.00177595 -8.61268e-20 0.00177595)
(0.00179271 -1.01554e-05 -0.000619811 0.00179271 -8.87009e-20 0.00179271)
(0.00180917 -9.90612e-06 -0.00062697 0.00180917 -8.22137e-20 0.00180917)
(0.00182531 -9.66665e-06 -0.000634002 0.00182531 -8.25859e-20 0.00182531)
(0.00184116 -9.43158e-06 -0.000640907 0.00184116 -8.93629e-20 0.00184116)
(0.00185672 -9.1952e-06 -0.000647685 0.00185672 -8.57127e-20 0.00185672)
(0.001872 -8.97493e-06 -0.00065435 0.001872 -8.74077e-20 0.001872)
(0.00188701 -8.75943e-06 -0.000660904 0.00188701 -9.45584e-20 0.00188701)
(0.00190176 -8.54876e-06 -0.000667337 0.00190176 -9.14658e-20 0.00190176)
(0.00191625 -8.34309e-06 -0.000673669 0.00191625 -8.791e-20 0.00191625)
(0.00193048 -8.14242e-06 -0.000679881 0.00193048 -8.36919e-20 0.00193048)
(0.00194447 -7.95265e-06 -0.000685993 0.00194447 -7.49039e-20 0.00194447)
(0.00195821 -7.76238e-06 -0.000692003 0.00195821 -8.16937e-20 0.00195821)
(0.00197171 -7.57737e-06 -0.000697915 0.00197171 -8.61313e-20 0.00197171)
(0.00198499 -7.39772e-06 -0.000703719 0.00198499 -7.77034e-20 0.00198499)
(0.00199803 -7.22346e-06 -0.000709429 0.00199803 -7.1363e-20 0.00199803)
(0.00201085 -7.04899e-06 -0.000715042 0.00201085 -7.32111e-20 0.00201085)
(0.00202345 -6.87996e-06 -0.000720555 0.00202345 -6.42449e-20 0.00202345)
(0.00203583 -6.72218e-06 -0.000725983 0.00203583 -5.29648e-20 0.00203583)
(0.00204799 -6.56429e-06 -0.000731307 0.00204799 -6.85307e-20 0.00204799)
(0.00205994 -6.40634e-06 -0.000736549 0.00205994 -6.73259e-20 0.00205994)
(0.00207169 -6.24839e-06 -0.000741699 0.00207169 -4.62546e-20 0.00207169)
(0.00208323 -6.10171e-06 -0.000746756 0.00208323 -3.93814e-20 0.00208323)
(0.00209457 -5.95514e-06 -0.000751724 0.00209457 -4.57353e-20 0.00209457)
(0.0021057 -5.80859e-06 -0.000756611 0.0021057 -5.02784e-20 0.0021057)
(0.00211663 -5.66782e-06 -0.000761408 0.00211663 -3.88506e-20 0.00211663)
(0.00212737 -5.52716e-06 -0.00076612 0.00212737 -3.43091e-20 0.00212737)
(0.00213792 -5.39226e-06 -0.000770746 0.00213792 -4.57957e-20 0.00213792)
(0.00214827 -5.26311e-06 -0.000775284 0.00214827 -4.7134e-20 0.00214827)
(0.00215843 -5.12865e-06 -0.000779739 0.00215843 -3.40615e-20 0.00215843)
(0.00216839 -4.9999e-06 -0.000784111 0.00216839 -1.86025e-20 0.00216839)
(0.00217817 -4.87151e-06 -0.000788416 0.00217817 -2.17983e-20 0.00217817)
(0.00218776 -4.7433e-06 -0.000792618 0.00218776 -3.62175e-20 0.00218776)
(0.00219716 -4.62647e-06 -0.000796752 0.00219716 -4.47041e-20 0.00219716)
(0.00220637 -4.50441e-06 -0.000800798 0.00220637 -3.43624e-20 0.00220637)
(0.0022154 -4.38269e-06 -0.000804766 0.0022154 -2.18978e-20 0.0022154)
(0.00222425 -4.26133e-06 -0.000808645 0.00222425 -3.11903e-20 0.00222425)
(0.0022329 -4.14578e-06 -0.000812454 0.0022329 -3.93044e-20 0.0022329)
(0.00224137 -4.03603e-06 -0.000816166 0.00224137 -4.31404e-20 0.00224137)
(0.00224966 -3.92126e-06 -0.000819814 0.00224966 -3.37759e-20 0.00224966)
(0.00225777 -3.80688e-06 -0.000823371 0.00225777 -3.6724e-20 0.00225777)
(0.00226569 -3.69831e-06 -0.000826855 0.00226569 -4.69554e-20 0.00226569)
(0.00227343 -3.59016e-06 -0.000830256 0.00227343 -4.52506e-20 0.00227343)
(0.00228097 -3.48246e-06 -0.000833574 0.00228097 -4.1586e-20 0.00228097)
(0.00228834 -3.37521e-06 -0.000836809 0.00228834 -3.39994e-20 0.00228834)
(0.00229553 -3.26315e-06 -0.000839967 0.00229553 -5.04029e-20 0.00229553)
(0.00230252 -3.16212e-06 -0.000843049 0.00230252 -5.07142e-20 0.00230252)
(0.00230933 -3.06165e-06 -0.000846036 0.00230933 -3.9529e-20 0.00230933)
(0.00231596 -2.95113e-06 -0.000848954 0.00231596 -5.0735e-20 0.00231596)
(0.0023224 -2.85163e-06 -0.000851785 0.0023224 -4.94328e-20 0.0023224)
(0.00232865 -2.75267e-06 -0.000854529 0.00232865 -4.90003e-20 0.00232865)
(0.00233471 -2.64905e-06 -0.000857192 0.00233471 -6.40023e-20 0.00233471)
(0.00234058 -2.55116e-06 -0.000859776 0.00234058 -7.35614e-20 0.00234058)
(0.00234626 -2.45386e-06 -0.000862279 0.00234626 -6.66734e-20 0.00234626)
(0.00235175 -2.35199e-06 -0.00086469 0.00235175 -5.09432e-20 0.00235175)
(0.00235705 -2.25583e-06 -0.00086701 0.00235705 -4.56747e-20 0.00235705)
(0.00236215 -2.15524e-06 -0.000869256 0.00236215 -3.7812e-20 0.00236215)
(0.00236705 -2.05524e-06 -0.000871418 0.00236705 -2.88816e-20 0.00236705)
(0.00237175 -1.96601e-06 -0.000873487 0.00237175 -4.09384e-20 0.00237175)
(0.00237626 -1.86737e-06 -0.000875467 0.00237626 -4.3971e-20 0.00237626)
(0.00238057 -1.76936e-06 -0.000877356 0.00238057 -2.2804e-20 0.00238057)
(0.00238467 -1.67708e-06 -0.000879167 0.00238467 -2.02342e-20 0.00238467)
(0.00238857 -1.5805e-06 -0.000880882 0.00238857 -1.88975e-20 0.00238857)
(0.00239226 -1.48463e-06 -0.000882502 0.00239226 -4.34729e-21 0.00239226)
(0.00239574 -1.38463e-06 -0.000884044 0.00239574 -1.19784e-20 0.00239574)
(0.00239901 -1.29026e-06 -0.00088548 0.00239901 -1.09375e-20 0.00239901)
(0.00240207 -1.20155e-06 -0.00088682 0.00240207 -1.80856e-20 0.00240207)
(0.00240491 -1.1039e-06 -0.000888071 0.00240491 -2.46593e-20 0.00240491)
(0.00240753 -1.00705e-06 -0.000889226 0.00240753 -1.15491e-20 0.00240753)
(0.00240993 -9.1585e-07 -0.000890275 0.00240993 -6.44514e-21 0.00240993)
(0.0024121 -8.207e-07 -0.000891236 0.0024121 -1.61095e-20 0.0024121)
(0.00241404 -7.21655e-07 -0.00089209 0.00241404 -2.24087e-20 0.00241404)
(0.00241576 -6.28248e-07 -0.000892847 0.00241576 -2.10896e-20 0.00241576)
(0.00241724 -5.31079e-07 -0.000893497 0.00241724 -1.76472e-20 0.00241724)
(0.00241848 -4.34805e-07 -0.00089404 0.00241848 -9.77365e-21 0.00241848)
(0.00241949 -3.39547e-07 -0.000894486 0.00241949 -8.05386e-21 0.00241949)
(0.00242024 -2.40604e-07 -0.000894824 0.00242024 -3.71892e-21 0.00242024)
(0.00242075 -1.4731e-07 -0.000895038 0.00242075 -9.98877e-21 0.00242075)
(0.00242101 -5.04561e-08 -0.000895154 0.00242101 -6.87622e-21 0.00242101)
(0.000535167 -4.02259e-05 -5.2999e-06 0.000535167 1.22642e-18 0.000535167)
(0.000341191 -3.40798e-05 -1.36396e-05 0.000341191 -2.67582e-19 0.000341191)
(0.000308894 -4.26842e-05 -2.93652e-05 0.000308894 -9.35527e-19 0.000308894)
(0.000348803 -5.70663e-05 -5.70663e-05 0.000348803 -1.22407e-18 0.000348803)
(0.000419707 -6.95972e-05 -9.28528e-05 0.000419707 -1.22792e-18 0.000419707)
(0.000501424 -7.75815e-05 -0.000131293 0.000501424 -1.02658e-18 0.000501424)
(0.000584479 -8.16152e-05 -0.000169483 0.000584479 -7.64631e-19 0.000584479)
(0.000664713 -8.28917e-05 -0.000206212 0.000664713 -5.33839e-19 0.000664713)
(0.000740527 -8.23985e-05 -0.000241049 0.000740527 -3.58831e-19 0.000740527)
(0.000811507 -8.0825e-05 -0.000273914 0.000811507 -2.235e-19 0.000811507)
(0.0008778 -7.86253e-05 -0.000304883 0.0008778 -1.25662e-19 0.0008778)
(0.000939753 -7.60894e-05 -0.000334082 0.000939753 -6.68556e-20 0.000939753)
(0.000997773 -7.34051e-05 -0.000361665 0.000997773 -2.53216e-20 0.000997773)
(0.00105229 -7.06731e-05 -0.000387795 0.00105229 3.21085e-21 0.00105229)
(0.00110367 -6.79727e-05 -0.000412577 0.00110367 1.44923e-20 0.00110367)
(0.00115225 -6.53647e-05 -0.000436164 0.00115225 2.0211e-20 0.00115225)
(0.00119834 -6.28377e-05 -0.000458643 0.00119834 1.82569e-20 0.00119834)
(0.00124218 -6.04134e-05 -0.00048013 0.00124218 1.02461e-20 0.00124218)
(0.00128399 -5.81028e-05 -0.000500692 0.00128399 5.37688e-21 0.00128399)
(0.00132397 -5.59034e-05 -0.000520406 0.00132397 1.41399e-20 0.00132397)
(0.00136229 -5.3822e-05 -0.000539337 0.00136229 2.19845e-20 0.00136229)
(0.00139907 -5.18379e-05 -0.000557552 0.00139907 1.52781e-20 0.00139907)
(0.00143447 -4.99634e-05 -0.000575105 0.00143447 5.69915e-21 0.00143447)
(0.00146857 -4.81766e-05 -0.000592044 0.00146857 -5.96495e-21 0.00146857)
(0.00150149 -4.64822e-05 -0.000608409 0.00150149 -1.60135e-20 0.00150149)