/*--------------------------------*- C++ -*----------------------------------*\
| =========                 |                                                 |
| \\      /  F ield         | OpenFOAM: The Open Source CFD Toolbox           |
|  \\    /   O peration     | Version:  2306                                  |
|   \\  /    A nd           | Website:  www.openfoam.com                      |
|    \\/     M anipulation  |                                                 |
\*---------------------------------------------------------------------------*/
// * * * * * * * * * * * * * * * * * * * * * * * * * * * * * * * * * * * * * //
FoamFile
{
    version         2;
    format          ascii;
    arch            "LSB;label=32;scalar=64";
    class           volSymmTensorField;
    location        "0";
    object          S;
}

dimensions      [ 0 0 -1 0 0 0 0 ];

internalField   nonuniform List<symmTensor> 
15625
(
(0 0.206341 0.206341 -1.92609e-13 -1.13615e-13 -1.9263e-13)
(0 0.171883 0.539398 1.86475e-14 -7.28144e-14 -1.28843e-13)
(8.51809e-18 0.159482 0.84906 8.76262e-14 -4.55875e-14 -5.69524e-14)
(0 0.150265 1.1405 3.66778e-14 -3.4903e-14 -2.91636e-14)
(0 0.141396 1.41424 1.55673e-14 -2.65426e-14 -1.62712e-14)
(0 0.132186 1.66959 8.57924e-15 -2.06395e-14 -9.3166e-15)
(1.66595e-17 0.122804 1.9063 5.24764e-15 -1.66294e-14 -5.59283e-15)
(0 0.11364 2.12494 3.32843e-15 -1.38303e-14 -3.6008e-15)
(0 0.10501 2.32668 2.24509e-15 -1.18074e-14 -2.45731e-15)
(0 0.0970949 2.51302 1.62542e-15 -1.02865e-14 -1.79191e-15)
(3.25822e-17 0.0899467 2.68556 1.24044e-15 -9.08674e-15 -1.36631e-15)
(0 0.0835368 2.84581 9.81012e-16 -8.13207e-15 -1.07513e-15)
(0 0.0778198 2.99516 7.98399e-16 -7.35119e-15 -8.72715e-16)
(0 0.0727218 3.13485 6.49479e-16 -6.69835e-15 -7.23115e-16)
(3.18618e-17 0.068158 3.26595 5.28891e-16 -6.15833e-15 -6.08553e-16)
(-3.16842e-17 0.0640658 3.38936 4.4168e-16 -5.70515e-15 -5.06694e-16)
(3.15076e-17 0.0603801 3.5059 3.66506e-16 -5.32736e-15 -4.12357e-16)
(-3.13319e-17 0.0570453 3.61623 3.12148e-16 -5.00972e-15 -3.59904e-16)
(3.11573e-17 0.0540231 3.72097 2.75649e-16 -4.71717e-15 -3.2772e-16)
(6.19672e-17 0.05126 3.8206 2.26956e-16 -4.45735e-15 -2.73043e-16)
(3.08109e-17 0.0487317 3.91559 1.82046e-16 -4.24296e-15 -2.27729e-16)
(0 0.0464146 4.00632 1.51622e-16 -4.05645e-15 -2.04674e-16)
(0 0.0442773 4.09314 1.34419e-16 -3.9044e-15 -1.85485e-16)
(-6.0597e-17 0.0423012 4.17635 1.3685e-16 -3.75977e-15 -1.59796e-16)
(-3.01296e-17 0.0404681 4.25621 1.40415e-16 -3.60621e-15 -1.65542e-16)
(0 0.03876 4.33298 1.32513e-16 -3.45151e-15 -1.79955e-16)
(0 0.037171 4.40685 1.17083e-16 -3.30959e-15 -1.11794e-16)
(0 0.0356878 4.47803 1.04576e-16 -3.19631e-15 -1.10359e-16)
(0 0.0342933 4.54668 8.62111e-17 -3.08622e-15 -8.53307e-17)
(0 0.0329861 4.61298 6.07505e-17 -3.00349e-15 -8.12676e-17)
(0 0.031761 4.67704 5.45688e-17 -2.92552e-15 -8.07746e-17)
(0 0.0306017 4.73902 6.32422e-17 -2.85002e-15 -6.07144e-17)
(0 0.029507 4.79902 7.08071e-17 -2.78379e-15 -8.32947e-17)
(0 0.02848 4.85716 7.87535e-17 -2.71164e-15 -8.13657e-17)
(-5.69832e-17 0.0275007 4.91353 8.753e-17 -2.64595e-15 -1.02043e-16)
(0 0.0265723 4.96822 7.81289e-17 -2.56473e-15 -1.10162e-16)
(0 0.0256939 5.02133 6.49569e-17 -2.48186e-15 -9.80111e-17)
(0 0.0248539 5.07292 6.08429e-17 -2.39007e-15 -8.8272e-17)
(0 0.0240552 5.12307 3.63647e-17 -2.31949e-15 -4.72972e-17)
(5.54126e-17 0.0232973 5.17185 1.35259e-17 -2.33027e-15 -1.41956e-17)
(0 0.022576 5.21931 3.08858e-17 -2.3472e-15 -6.19743e-17)
(0 0.0218799 5.26552 4.96232e-17 -2.31402e-15 -3.76565e-17)
(0 0.0212159 5.31053 3.48691e-17 -2.27507e-15 -6.38285e-17)
(0 0.0205834 5.35439 2.49017e-17 -2.25439e-15 -4.01038e-17)
(0 0.0199749 5.39713 3.45146e-17 -2.23296e-15 -3.7372e-17)
(0 0.0193901 5.43883 3.06423e-17 -2.2038e-15 -6.18531e-17)
(0 0.0188286 5.4795 3.31425e-18 -2.19779e-15 -2.76451e-17)
(1.05978e-16 0.0182936 5.51918 -1.81886e-17 -2.19943e-15 -5.73352e-17)
(5.26938e-17 0.0177744 5.55793 -5.69631e-18 -2.19761e-15 -4.31437e-17)
(0 0.0172775 5.59576 3.00104e-17 -2.18548e-15 -5.25386e-17)
(-1.04216e-16 0.0167958 5.6327 2.85041e-17 -2.14025e-15 -4.04081e-17)
(0 0.0163325 5.6688 -1.38838e-17 -2.127e-15 -4.96294e-17)
(1.03057e-16 0.0158874 5.70408 -2.56725e-17 -2.14493e-15 -7.82763e-17)
(0 0.0154534 5.73856 -1.18339e-17 -2.1073e-15 -8.18655e-17)
(5.09558e-17 0.0150371 5.77227 5.85005e-18 -2.08129e-15 -4.06064e-17)
(-5.06718e-17 0.0146316 5.80523 2.65546e-17 -2.03695e-15 -8.83369e-17)
(0 0.01424 5.83745 2.98182e-17 -1.9683e-15 -4.87217e-17)
(0 0.0138655 5.86898 2.0881e-17 -1.92443e-15 -8.22768e-17)
(0 0.013498 5.89983 1.03555e-17 -1.88695e-15 -8.78502e-17)
(0 0.0131406 5.93 4.71359e-18 -1.85233e-15 -1.11636e-16)
(0 0.0127964 5.95953 5.91435e-18 -1.79802e-15 -5.96944e-17)
(0 0.0124621 5.98843 2.28876e-17 -1.76558e-15 -8.16656e-17)
(-9.74547e-17 0.0121375 6.01671 4.19147e-17 -1.69072e-15 -1.01701e-16)
(0 0.0118193 6.04439 2.4287e-17 -1.60665e-15 -4.858e-17)
(0 0.0115138 6.07148 5.99022e-19 -1.59988e-15 -5.88229e-17)
(0 0.0112144 6.098 6.91154e-18 -1.57448e-15 -1.10553e-16)
(4.76499e-17 0.0109211 6.12396 3.09599e-17 -1.51456e-15 -4.75436e-17)
(0 0.010637 6.14937 4.91613e-17 -1.41234e-15 -6.39461e-17)
(-9.42403e-17 0.0103587 6.17423 5.25556e-17 -1.29614e-15 -7.39124e-17)
(0 0.0100894 6.19858 4.53129e-17 -1.20408e-15 -8.57373e-17)
(0 0.00982271 6.2224 1.83883e-17 -1.14294e-15 -2.54026e-17)
(0 0.00956475 6.24572 6.53447e-18 -1.15912e-15 2.38364e-17)
(0 0.00931543 6.26854 3.84394e-18 -1.14837e-15 -3.87765e-17)
(9.16428e-17 0.00906857 6.29087 -2.11659e-17 -1.10822e-15 -2.59372e-17)
(0 0.00882717 6.31272 -1.41332e-17 -1.10742e-15 -2.70345e-18)
(-9.0624e-17 0.00859114 6.3341 2.38838e-17 -1.1074e-15 -3.25362e-17)
(-9.01188e-17 0.00835747 6.35502 5.28644e-17 -1.08204e-15 -3.54034e-17)
(0 0.00813198 6.37543 5.43978e-17 -1.0173e-15 -3.17792e-17)
(8.91169e-17 0.0079117 6.39544 7.83809e-18 -9.74197e-16 1.85727e-17)
(0 0.0076907 6.41495 -1.48385e-17 -1.00279e-15 -3.17811e-17)
(0 0.00747768 6.43406 1.44653e-17 -9.94156e-16 -3.62314e-17)
(0 0.00726967 6.45272 4.18216e-17 -9.43256e-16 -3.70249e-17)
(0 0.00706376 6.47098 5.77013e-17 -8.62452e-16 -1.02911e-16)
(0 0.00685991 6.48875 5.20256e-17 -7.72202e-16 -3.13205e-17)
(0 0.00665811 6.50616 3.05081e-17 -7.35699e-16 -3.46856e-17)
(0 0.00646394 6.52308 3.06667e-17 -7.10464e-16 -6.02179e-17)
(0 0.00627177 6.53966 5.95174e-17 -6.81385e-16 -9.65463e-17)
(0 0.00607873 6.55574 6.82252e-17 -6.09686e-16 -1.01309e-16)
(0 0.00589317 6.57147 4.28732e-17 -4.99955e-16 -7.62876e-17)
(0 0.00570951 6.58676 6.95875e-18 -4.5892e-16 -7.48744e-18)
(0 0.00552498 6.60166 -9.57914e-18 -5.18048e-16 2.13242e-17)
(0 0.00534503 6.61617 1.16689e-17 -5.65525e-16 -3.4633e-17)
(0 0.00516692 6.63023 1.42109e-17 -5.45358e-16 -3.9672e-18)
(0 0.00499063 6.64394 -1.52691e-17 -5.75346e-16 5.91717e-18)
(1.62985e-16 0.00481881 6.65722 2.87225e-17 -6.07379e-16 3.76424e-18)
(0 0.00464611 6.6701 1.03571e-16 -5.17319e-16 -1.99635e-17)
(-8.05865e-17 0.0044778 6.68259 6.87228e-17 -4.02782e-16 -9.17595e-18)
(0 0.00430863 6.69469 -3.44036e-19 -3.65489e-16 -6.81315e-18)
(0 0.00414117 6.70635 -4.65114e-18 -3.81874e-16 5.2922e-17)
(0 0.00397807 6.71766 1.74122e-18 -3.55051e-16 2.45249e-17)
(0 0.00381406 6.72853 4.84354e-18 -3.5446e-16 4.43458e-17)
(-7.83653e-17 0.00365177 6.73906 3.1714e-17 -2.80944e-16 -7.52311e-17)
(0 0.00348862 6.74914 1.58739e-17 -1.76025e-16 -2.57336e-17)
(0 0.00332969 6.75882 -2.54071e-17 -1.92078e-16 -1.13316e-17)
(0 0.00317245 6.76812 -1.69283e-17 -1.9096e-16 -5.88067e-17)
(0 0.00301434 6.77697 -1.80576e-17 -1.60224e-16 3.43911e-17)
(0 0.00285541 6.78547 -4.08786e-17 -2.13175e-16 1.47086e-16)
(0 0.00269814 6.79353 -3.4295e-17 -2.85392e-16 -3.96082e-19)
(0 0.00254501 6.80119 -1.93631e-17 -2.85507e-16 -3.96245e-17)
(0 0.00239105 6.8084 -1.59666e-17 -2.61884e-16 -3.40257e-17)
(7.45203e-17 0.00223386 6.81522 -6.59547e-19 -2.7054e-16 1.45593e-17)
(0 0.00208075 6.82163 3.84901e-17 -2.46437e-16 -9.63302e-18)
(-7.36919e-17 0.0019269 6.8276 2.52924e-17 -1.30659e-16 -1.66035e-17)
(-7.32811e-17 0.00177227 6.83316 -2.76951e-17 -1.73935e-16 6.98432e-17)
(0 0.00162171 6.83827 -3.24478e-17 -2.64767e-16 -2.74502e-17)
(1.44933e-16 0.00146803 6.84298 -4.41233e-18 -2.72579e-16 -6.63068e-17)
(-7.20624e-17 0.00131364 6.84719 4.30092e-17 -2.54845e-16 -6.10297e-17)
(0 0.0011586 6.85099 6.61178e-17 -1.50932e-16 -3.38804e-17)
(0 0.00100755 6.85432 2.63542e-17 -2.30823e-17 -9.83928e-17)
(0 0.000853556 6.85721 -7.31751e-18 1.41592e-17 2.06013e-17)
(0 0.000698894 6.85963 -7.81965e-18 1.59284e-17 -3.65929e-17)
(-1.40152e-16 0.000545968 6.86159 -2.16297e-17 3.54991e-17 2.61669e-17)
(0 0.000390139 6.86305 -8.4323e-18 -9.038e-18 3.19082e-17)
(0 0.000233782 6.86408 8.63969e-18 4.48581e-17 -3.54294e-17)
(0 7.6882e-05 6.86455 -3.76751e-17 5.09134e-17 1.02655e-17)
(0 0.539398 0.171883 -1.28881e-13 -7.27677e-14 1.86424e-14)
(0 0.468146 0.468146 -2.9829e-14 7.21689e-14 -2.96451e-14)
(0 0.43576 0.750588 4.02948e-14 3.65364e-14 -3.62725e-14)
(0 0.40628 1.01512 2.97059e-14 7.85423e-15 -2.72141e-14)
(0 0.376701 1.25926 1.94229e-14 -1.98481e-15 -1.85365e-14)
(3.3319e-17 0.346967 1.48192 1.33651e-14 -5.53517e-15 -1.26209e-14)
(0 0.318124 1.68383 9.38142e-15 -6.70582e-15 -8.78237e-15)
(0 0.291146 1.86686 6.64424e-15 -6.78553e-15 -6.27906e-15)
(6.55298e-17 0.26659 2.0332 4.8425e-15 -6.45249e-15 -4.643e-15)
(0 0.244623 2.18504 3.69995e-15 -5.98423e-15 -3.52384e-15)
(0 0.225161 2.32429 2.91499e-15 -5.48249e-15 -2.7809e-15)
(6.444e-17 0.207983 2.45264 2.32791e-15 -5.01914e-15 -2.26999e-15)
(0 0.192819 2.57149 1.90626e-15 -4.60346e-15 -1.85974e-15)
(0 0.179404 2.68203 1.58396e-15 -4.23753e-15 -1.57066e-15)
(0 0.167489 2.78523 1.31396e-15 -3.91016e-15 -1.33054e-15)
(0 0.156862 2.88193 1.0917e-15 -3.61959e-15 -1.12007e-15)
(0 0.147342 2.97285 9.19467e-16 -3.38331e-15 -9.50864e-16)
(0 0.138769 3.05859 8.11431e-16 -3.18787e-15 -8.08688e-16)
(-2.47869e-16 0.131012 3.13964 7.33452e-16 -2.97518e-15 -7.08165e-16)
(0 0.123967 3.21646 6.302e-16 -2.78041e-15 -5.71781e-16)
(0 0.117545 3.28944 5.348e-16 -2.64772e-15 -4.94857e-16)
(1.21873e-16 0.111663 3.3589 4.55031e-16 -2.52162e-15 -4.61553e-16)
(1.21194e-16 0.106255 3.42514 3.937e-16 -2.38228e-15 -4.26732e-16)
(1.20519e-16 0.101268 3.4884 3.84125e-16 -2.28314e-15 -3.76865e-16)
(0 0.0966607 3.54892 3.92656e-16 -2.20161e-15 -3.6143e-16)
(0 0.092388 3.60691 3.74618e-16 -2.04732e-15 -3.29175e-16)
(0 0.0884097 3.66253 3.26773e-16 -1.94584e-15 -2.74064e-16)
(0 0.0847016 3.716 2.91655e-16 -1.88163e-15 -2.43722e-16)
(0 0.0812404 3.76735 2.62317e-16 -1.79621e-15 -1.72669e-16)
(0 0.0779955 3.81683 2.16707e-16 -1.73155e-15 -1.66666e-16)
(0 0.074952 3.86451 1.84062e-16 -1.66911e-15 -1.50076e-16)
(0 0.0720879 3.9105 1.75156e-16 -1.63838e-15 -1.88319e-16)
(0 0.069393 3.95486 1.74654e-16 -1.57796e-15 -2.13974e-16)
(0 0.0668534 3.99777 1.57961e-16 -1.51903e-15 -1.85215e-16)
(-1.13331e-16 0.0644482 4.03922 1.59289e-16 -1.48443e-15 -1.63925e-16)
(0 0.0621752 4.07935 1.84146e-16 -1.41573e-15 -1.50477e-16)
(0 0.0600215 4.11824 2.00247e-16 -1.35126e-15 -1.06403e-16)
(0 0.0579742 4.15585 1.855e-16 -1.29536e-15 -6.56622e-17)
(0 0.0560281 4.19236 7.08954e-17 -1.24279e-15 -8.4717e-17)
(1.10208e-16 0.0541816 4.22778 -3.56511e-17 -1.27228e-15 -1.34854e-16)
(0 0.052419 4.26214 -5.38289e-18 -1.26063e-15 -1.21888e-16)
(-2.17965e-16 0.0507353 4.29552 4.75793e-17 -1.23518e-15 -1.24724e-16)
(0 0.0491329 4.32795 4.7325e-17 -1.22803e-15 -9.88386e-17)
(0 0.0475965 4.35949 4.68945e-17 -1.19033e-15 -1.03299e-16)
(0 0.0461285 4.3901 6.70331e-17 -1.1936e-15 -1.23276e-16)
(0 0.0447281 4.41994 4.43045e-17 -1.14861e-15 -1.20434e-16)
(1.05978e-16 0.0433768 4.44896 -4.82126e-18 -1.13879e-15 -9.50592e-17)
(0 0.0420841 4.47719 -3.51845e-18 -1.1569e-15 -7.07336e-17)
(0 0.040846 4.5047 2.83084e-17 -1.14589e-15 -7.56791e-17)
(0 0.0396477 4.5315 6.61865e-17 -1.12727e-15 -1.36864e-16)
(0 0.0385025 4.55765 5.98927e-17 -1.11166e-15 -1.26933e-16)
(1.03057e-16 0.0373993 4.58311 1.35076e-17 -1.12575e-15 -1.27042e-16)
(0 0.0363309 4.60791 4.51698e-17 -1.10078e-15 -1.61528e-16)
(0 0.0353067 4.63214 1.05117e-16 -1.04559e-15 -1.47105e-16)
(0 0.0343162 4.65574 1.19659e-16 -1.02691e-15 -1.40928e-16)
(0 0.0333555 4.6788 1.31685e-16 -9.94157e-16 -1.11056e-16)
(0 0.0324341 4.70127 1.31198e-16 -9.71193e-16 -1.06225e-16)
(0 0.0315417 4.72322 1.08214e-16 -9.62479e-16 -1.21605e-16)
(0 0.0306745 4.74466 7.97891e-17 -9.33976e-16 -1.57298e-16)
(0 0.0298387 4.76557 1.03448e-16 -8.99682e-16 -9.7615e-17)
(1.96002e-16 0.0290274 4.78601 1.34027e-16 -8.73035e-16 -1.06575e-16)
(1.94909e-16 0.0282402 4.80596 1.36764e-16 -8.55895e-16 -1.0105e-16)
(1.93823e-16 0.0274769 4.82546 1.52553e-16 -8.04372e-16 -9.57647e-17)
(0 0.0267339 4.84447 9.66099e-17 -7.94208e-16 -6.504e-17)
(0 0.026014 4.86307 5.66236e-17 -8.24093e-16 -1.37481e-16)
(0 0.0253171 4.88125 1.35902e-16 -7.559e-16 -1.91311e-16)
(0 0.0246365 4.89902 2.17204e-16 -6.67413e-16 -1.06896e-16)
(0 0.0239719 4.91637 2.40025e-16 -6.50795e-16 -8.28244e-17)
(0 0.0233295 4.9333 2.17407e-16 -6.1998e-16 -1.27528e-16)
(0 0.0227026 4.94989 1.59577e-16 -5.43221e-16 -1.42488e-16)
(0 0.0220881 4.96605 4.13763e-17 -4.86262e-16 -7.62794e-17)
(-1.84313e-16 0.0214919 4.98187 -1.44144e-17 -5.54856e-16 -2.52285e-17)
(0 0.0209077 4.9973 6.2814e-17 -5.81869e-16 -9.00628e-17)
(1.82264e-16 0.0203383 5.01238 7.48404e-17 -5.02256e-16 -9.37633e-17)
(0 0.0197925 5.02712 1.74106e-17 -4.99036e-16 -7.29571e-18)
(-1.80238e-16 0.0192552 5.04154 2.08534e-17 -5.17769e-16 1.48969e-17)
(0 0.0186967 5.05557 6.34175e-17 -5.04923e-16 -1.39077e-17)
(0 0.0181818 5.06934 7.54199e-17 -4.82616e-16 -1.01305e-16)
(0 0.0176724 5.0827 2.4599e-17 -4.81822e-16 -1.05157e-16)
(0 0.0171677 5.0958 2.81057e-18 -4.7224e-16 -7.79132e-17)
(-1.7527e-16 0.0166972 5.10858 5.70689e-17 -4.53229e-16 -9.94398e-19)
(1.74293e-16 0.0162313 5.12104 1.14e-16 -4.72656e-16 -7.54264e-17)
(0 0.0157417 5.13319 1.46766e-16 -4.0676e-16 -1.23494e-16)
(0 0.0152851 5.14501 1.14852e-16 -3.38923e-16 -1.03382e-16)
(-1.71394e-16 0.0148335 5.15657 5.23709e-17 -3.48861e-16 -5.90249e-17)
(-1.70439e-16 0.0143861 5.16785 3.37308e-17 -3.67674e-16 -1.04784e-18)
(-1.69489e-16 0.0139436 5.1788 6.67256e-17 -3.58234e-16 -9.50521e-17)
(0 0.0135051 5.18948 1.45977e-16 -3.0388e-16 -2.61168e-17)
(1.67605e-16 0.0130991 5.19988 1.36133e-16 -2.26782e-16 -2.0997e-17)
(0 0.0126695 5.20999 -1.50383e-17 -2.08612e-16 3.91448e-17)
(0 0.0122716 5.21983 -1.0711e-16 -2.74623e-16 3.07856e-17)
(0 0.0118508 5.22939 -5.34683e-17 -2.92416e-16 -1.04923e-17)
(0 0.011461 5.23863 -3.18482e-17 -2.92856e-16 8.22591e-17)
(0 0.0110755 5.24767 -6.38594e-17 -3.19882e-16 2.49581e-17)
(0 0.010667 5.25639 2.33405e-17 -3.42027e-16 -2.30237e-17)
(-1.61173e-16 0.0102893 5.26482 1.39213e-16 -3.29744e-16 -5.10459e-17)
(1.60275e-16 0.00991552 5.27302 1.21473e-16 -2.81674e-16 -1.21957e-16)
(0 0.00951942 5.28094 2.82954e-17 -2.19736e-16 -1.20857e-16)
(0 0.00915329 5.28858 1.82064e-17 -2.24396e-16 -4.08331e-17)
(0 0.00879124 5.29598 4.57044e-17 -2.34592e-16 2.26882e-17)
(0 0.00843265 5.3031 8.55462e-17 -2.5227e-16 6.24214e-17)
(0 0.00807807 5.30994 1.48255e-16 -2.08672e-16 2.27829e-17)
(0 0.00770146 5.31654 7.57853e-17 -1.49009e-16 4.24411e-17)
(1.54124e-16 0.00735424 5.32282 1.68058e-17 -1.87456e-16 -1.07207e-17)
(3.0653e-16 0.0069855 5.32886 4.16262e-17 -1.15457e-16 -4.03436e-17)
(1.52411e-16 0.00664551 5.33467 -4.73707e-18 -7.2638e-17 6.32618e-17)
(0 0.00630937 5.34016 -6.62647e-17 -1.68531e-16 8.01822e-17)
(0 0.00595176 5.34542 -3.98332e-17 -2.26616e-16 3.57192e-17)
(0 0.00559809 5.3504 3.44679e-17 -1.87276e-16 6.85499e-17)
(0 0.00524803 5.3551 2.89215e-17 -1.42991e-16 3.67706e-17)
(1.4821e-16 0.00492616 5.35953 1.37076e-17 -1.55008e-16 9.48356e-19)
(0 0.00458353 5.36364 9.93348e-17 -1.58297e-16 4.16341e-17)
(1.46562e-16 0.00424443 5.36753 4.74803e-17 -9.43206e-17 -2.79005e-17)
(1.45745e-16 0.00390911 5.37114 -1.00037e-16 -1.36829e-16 9.63305e-17)
(0 0.00357726 5.37444 -7.01682e-17 -2.00957e-16 7.09775e-17)
(1.44125e-16 0.00322547 5.37747 4.24092e-18 -1.67856e-16 1.3684e-17)
(0 0.00287723 5.38023 8.37091e-17 -1.48001e-16 -7.86151e-17)
(0 0.00255642 5.38269 1.77198e-16 -1.25486e-16 -5.62831e-17)
(0 0.00221571 5.38484 1.46651e-16 -2.25278e-17 -5.3694e-17)
(-1.40938e-16 0.00187872 5.38672 5.40537e-17 1.44195e-17 -1.65776e-17)
(0 0.00154542 5.38825 2.54825e-17 -1.09288e-17 8.24086e-18)
(0 0.00119291 5.38953 -4.03399e-18 1.55148e-17 1.85006e-17)
(0 0.00086689 5.39046 2.55936e-17 -2.42222e-17 2.61359e-17)
(-1.37822e-16 0.000522112 5.39109 5.16786e-17 2.11994e-17 -1.0405e-18)
(0 0.000158286 5.39144 -6.42538e-17 3.61698e-17 1.01148e-16)
(8.51809e-18 0.84906 0.159482 -5.69904e-14 -4.55196e-14 8.76357e-14)
(0 0.750588 0.43576 -3.6456e-14 3.65995e-14 4.04862e-14)
(-3.36936e-17 0.703437 0.703437 6.44922e-16 3.52052e-14 8.3056e-16)
(6.70115e-17 0.65331 0.949628 9.80463e-15 2.08259e-14 -1.0155e-14)
(0 0.600455 1.16888 1.12899e-14 1.14019e-14 -1.14884e-14)
(-6.62665e-17 0.547391 1.36168 1.02753e-14 5.57469e-15 -1.019e-14)
(0 0.497139 1.53141 8.53659e-15 2.16026e-15 -8.37214e-15)
(0 0.451484 1.68203 6.80347e-15 3.2989e-16 -6.72686e-15)
(0 0.41097 1.81699 5.38682e-15 -5.69111e-16 -5.37534e-15)
(1.29602e-16 0.375437 1.9391 4.34178e-15 -1.00603e-15 -4.30774e-15)
(0 0.344407 2.05049 3.54491e-15 -1.21782e-15 -3.52405e-15)
(-1.28162e-16 0.317283 2.15284 2.93211e-15 -1.22506e-15 -2.93841e-15)
(1.27447e-16 0.293505 2.24744 2.45369e-15 -1.16284e-15 -2.45514e-15)
(0 0.27257 2.33535 2.05434e-15 -1.0878e-15 -2.10179e-15)
(1.2603e-16 0.254036 2.41733 1.73492e-15 -9.63644e-16 -1.79878e-15)
(0 0.237551 2.49416 1.47365e-15 -8.43681e-16 -1.55532e-15)
(2.49258e-16 0.222806 2.5664 1.24302e-15 -7.40465e-16 -1.35e-15)
(0 0.209546 2.63446 1.09681e-15 -6.59853e-16 -1.14619e-15)
(0 0.197569 2.6988 9.95715e-16 -5.50204e-16 -9.46781e-16)
(0 0.186701 2.75973 8.3153e-16 -4.66706e-16 -7.98658e-16)
(0 0.176799 2.81759 6.9548e-16 -4.54603e-16 -7.29107e-16)
(0 0.167744 2.87263 6.41762e-16 -4.00809e-16 -6.67771e-16)
(0 0.159414 2.92506 5.7359e-16 -3.0353e-16 -6.07836e-16)
(0 0.151739 2.97516 5.11047e-16 -2.38726e-16 -5.73023e-16)
(0 0.144662 3.02298 5.36037e-16 -1.87782e-16 -4.94726e-16)
(0 0.13809 3.06881 5.20922e-16 -1.03437e-16 -4.16631e-16)
(0 0.132016 3.11268 4.23996e-16 -5.04184e-17 -3.91703e-16)
(0 0.126316 3.15484 3.82132e-16 6.26732e-18 -3.16808e-16)
(0 0.120983 3.19526 3.41958e-16 2.72992e-17 -3.05726e-16)
(0 0.116052 3.23419 2.80719e-16 1.13368e-17 -2.84707e-16)
(0 0.1114 3.27161 2.39468e-16 2.74417e-17 -2.86998e-16)
(0 0.106987 3.30766 2.46874e-16 4.75692e-17 -3.14085e-16)
(2.27933e-16 0.102883 3.34243 2.69023e-16 1.28121e-16 -3.17424e-16)
(2.26662e-16 0.0990091 3.37597 2.33407e-16 1.97551e-16 -2.68262e-16)
(0 0.0953242 3.40835 2.39825e-16 2.20903e-16 -1.95482e-16)
(0 0.0919 3.43963 2.71661e-16 2.6828e-16 -1.73207e-16)
(0 0.088585 3.46985 2.52509e-16 3.19338e-16 -1.11682e-16)
(-2.21651e-16 0.0854503 3.49909 2.21909e-16 3.07596e-16 -7.17105e-17)
(0 0.0825306 3.52742 1.06919e-16 2.68224e-16 -1.44325e-16)
(0 0.0797132 3.55485 2.60858e-17 3.11835e-16 -2.30123e-16)
(0 0.0770328 3.58141 8.27953e-17 3.84628e-16 -1.68774e-16)
(2.1675e-16 0.0744874 3.60716 1.0611e-16 4.38636e-16 -2.07698e-16)
(2.15541e-16 0.072075 3.63211 1.00875e-16 4.70435e-16 -1.10066e-16)
(0 0.0697228 3.65634 8.56814e-17 4.68544e-16 -1.06478e-16)
(0 0.0675 3.67984 8.79615e-17 4.84802e-16 -1.26658e-16)
(0 0.0654055 3.7027 8.00449e-17 5.04173e-16 -8.11548e-17)
(-4.21551e-16 0.063332 3.72485 1.41281e-17 5.23749e-16 -1.42497e-16)
(0 0.0613835 3.74639 -7.08948e-18 5.36144e-16 -8.34998e-17)
(0 0.059524 3.76734 2.76373e-17 4.94007e-16 -7.92999e-17)
(0 0.0577517 3.78773 7.43259e-17 4.93395e-16 -1.51142e-16)
(0 0.0560317 3.80754 5.42653e-17 5.30892e-16 -1.66028e-16)
(0 0.0543289 3.82678 1.59069e-17 5.06424e-16 -1.24042e-16)
(0 0.0527444 3.84552 6.22619e-17 5.13682e-16 -1.31802e-16)
(0 0.0512096 3.8638 8.53125e-17 5.5281e-16 -1.97741e-16)
(4.03115e-16 0.0497235 3.88154 8.5875e-17 5.32007e-16 -1.58153e-16)
(0 0.0482857 3.89887 1.10085e-16 5.0878e-16 -1.39513e-16)
(3.98633e-16 0.0468951 3.91568 9.64421e-17 4.82012e-16 -1.32417e-16)
(0 0.0455843 3.93209 8.3255e-17 4.29346e-16 -1.3976e-16)
(-3.94201e-16 0.0442867 3.94808 8.05946e-17 4.66087e-16 -1.79629e-16)
(0 0.0430345 3.96369 8.15991e-17 4.89169e-16 -1.25124e-16)
(0 0.0418271 3.97887 8.87562e-17 4.3934e-16 -1.18568e-16)
(0 0.0406639 3.99367 1.12591e-16 4.01732e-16 -1.44384e-16)
(0 0.0395125 4.00811 1.17327e-16 4.10379e-16 -1.80303e-16)
(0 0.0384042 4.02216 5.06648e-17 3.58617e-16 -1.58062e-16)
(0 0.0373702 4.03591 5.78683e-17 2.94443e-16 -9.21563e-17)
(0 0.0363465 4.04925 1.48331e-16 3.79455e-16 -6.40263e-17)
(3.76961e-16 0.0353331 4.06231 1.70731e-16 3.71325e-16 -3.05263e-18)
(0 0.0343299 4.07504 1.58623e-16 2.54132e-16 -8.03414e-17)
(0 0.0333982 4.08743 1.80253e-16 2.15558e-16 -1.02847e-16)
(1.85346e-16 0.0324763 4.09951 1.70863e-16 2.49417e-16 -1.1054e-16)
(0 0.0315632 4.11133 3.25155e-17 2.73207e-16 -1.75831e-16)
(0 0.0306898 4.12284 -4.95009e-17 2.10367e-16 -1.94712e-16)
(0 0.0298251 4.13406 5.35392e-17 1.85136e-16 -1.39612e-16)
(0 0.0289991 4.145 7.11057e-17 2.46285e-16 -7.2323e-17)
(0 0.0282111 4.15565 -6.58201e-18 2.52646e-16 -3.70753e-17)
(-3.58466e-16 0.0274017 4.16603 1.27426e-18 1.81986e-16 6.20859e-17)
(-3.56468e-16 0.0266294 4.17616 6.32057e-17 9.90767e-17 4.29893e-19)
(0 0.0258654 4.18611 9.54386e-17 1.15739e-16 -1.51764e-16)
(-3.52505e-16 0.0251086 4.1957 5.36746e-17 1.91716e-16 -2.00395e-16)
(0 0.0244177 4.20512 1.06163e-17 2.35941e-16 -8.70546e-17)
(1.74293e-16 0.0237049 4.21427 2.28306e-17 1.80835e-16 -1.2678e-16)
(0 0.0229992 4.22319 1.08463e-16 1.14914e-16 -1.44448e-16)
(0 0.0223007 4.23185 1.85417e-16 1.63227e-16 -1.0931e-16)
(0 0.0216375 4.24033 1.31588e-16 2.05136e-16 -1.89683e-16)
(0 0.0210093 4.24849 4.01014e-17 2.24564e-16 -1.06033e-16)
(0 0.0203594 4.25653 2.6714e-17 1.75366e-16 -1.83354e-17)
(0 0.019716 4.26429 1.05356e-16 1.90196e-16 -4.00315e-17)
(0 0.019107 4.27188 1.8841e-16 2.42591e-16 1.03904e-16)
(0 0.0185041 4.27924 1.3684e-16 2.33227e-16 5.92493e-17)
(0 0.0179074 4.28638 -2.00343e-17 2.13842e-16 7.8809e-18)
(3.29635e-16 0.0173167 4.29329 -7.82635e-17 1.74436e-16 -2.49921e-17)
(0 0.016705 4.30003 -2.60596e-17 2.58027e-16 2.19763e-17)
(-3.2597e-16 0.0161532 4.30659 -2.47251e-17 2.59066e-16 8.17861e-17)
(0 0.0156076 4.31288 -4.48827e-17 2.01509e-16 -2.70967e-17)
(0 0.0150138 4.31904 4.06347e-17 2.58113e-16 -8.51984e-17)
(0 0.0144793 4.32498 1.58986e-16 2.50997e-16 -6.16494e-17)
(0 0.0139503 4.33069 1.59894e-16 2.4833e-16 -1.94389e-16)
(3.16985e-16 0.0134006 4.33622 5.71702e-17 3.23764e-16 -1.51226e-16)
(3.15218e-16 0.0128825 4.34158 3.10187e-19 3.7146e-16 -6.53733e-17)
(0 0.0123699 4.34675 -3.1304e-18 3.36101e-16 6.68645e-17)
(0 0.0118368 4.35171 4.87647e-17 2.56381e-16 3.99014e-17)
(0 0.0113348 4.35644 1.19545e-16 2.295e-16 1.77489e-16)
(-3.08248e-16 0.0108128 4.36103 3.69926e-17 1.89702e-16 1.4829e-16)
(0 0.0102959 4.36545 1.01312e-17 1.44685e-16 9.08052e-17)
(0 0.00983505 4.36965 4.83629e-17 2.04796e-16 1.04206e-16)
(-3.03122e-16 0.00932899 4.37366 -5.43589e-17 2.19671e-16 7.42423e-17)
(3.01433e-16 0.008828 4.37745 -1.22723e-16 1.13778e-16 1.00431e-16)
(0 0.0083573 4.38111 -6.10325e-17 1.00832e-16 8.22472e-17)
(0 0.00786686 4.38455 1.02018e-17 9.40616e-17 2.20776e-16)
(0 0.00738161 4.38781 5.37667e-18 2.16148e-17 9.6309e-17)
(0 0.00687722 4.39089 1.14186e-17 5.94948e-17 -3.40284e-17)
(-2.93124e-16 0.00640227 4.39374 1.00763e-16 5.42716e-17 -8.8829e-18)
(-2.9149e-16 0.00595671 4.39642 4.77457e-17 8.96597e-17 -1.15164e-16)
(0 0.00546797 4.39892 -9.52314e-17 1.22146e-16 1.72834e-17)
(0 0.00498435 4.40119 -6.0973e-17 5.71617e-17 1.6297e-16)
(0 0.00452974 4.40325 1.50878e-17 3.18773e-17 2.33762e-16)
(0 0.00405652 4.40517 8.85399e-17 7.96253e-17 9.16323e-17)
(0 0.00356493 4.40686 1.89095e-16 1.10697e-16 1.06404e-17)
(-2.81876e-16 0.00310194 4.40838 1.43161e-16 1.04129e-16 1.10218e-16)
(0 0.00262101 4.40963 1.11817e-17 8.70932e-17 7.43862e-17)
(0 0.00214509 4.4107 -4.16618e-18 4.82178e-17 9.6206e-17)
(0 0.00167464 4.41159 -1.74624e-17 3.97215e-17 3.39156e-17)
(0 0.00118639 4.41226 1.25583e-17 1.83375e-17 3.55668e-17)
(0 0.000726257 4.41266 4.25411e-17 4.9246e-17 1.05112e-16)
(0 0.000248736 4.41289 -8.31963e-17 3.38981e-17 1.44656e-16)
(0 1.1405 0.150265 -2.92332e-14 -3.4772e-14 3.67171e-14)
(0 1.01512 0.40628 -2.74353e-14 7.97038e-15 2.99544e-14)
(-6.70115e-17 0.949628 0.65331 -1.03455e-14 2.08133e-14 1.00655e-14)
(0 0.869121 0.869121 -4.93623e-16 1.86427e-14 -2.54185e-16)
(0 0.78413 1.04614 4.23187e-15 1.38346e-14 -4.59556e-15)
(0 0.703406 1.19039 5.87378e-15 9.30769e-15 -5.97914e-15)
(0 0.631317 1.311 5.97904e-15 5.91464e-15 -5.97417e-15)
(-1.30329e-16 0.568779 1.41497 5.44121e-15 3.66305e-15 -5.43612e-15)
(1.29602e-16 0.515106 1.50689 4.70628e-15 2.24319e-15 -4.74216e-15)
(0 0.469086 1.58972 3.99614e-15 1.29713e-15 -4.08773e-15)
(1.28162e-16 0.429485 1.6654 3.44016e-15 6.86419e-16 -3.47981e-15)
(-1.27447e-16 0.395201 1.73519 2.98021e-15 3.47241e-16 -2.93287e-15)
(0 0.365345 1.80004 2.54029e-15 1.26028e-16 -2.4933e-15)
(-1.2603e-16 0.339106 1.86073 2.19421e-15 -1.54064e-17 -2.09833e-15)
(0 0.315935 1.91764 1.90777e-15 -6.73598e-17 -1.81546e-15)
(-1.24629e-16 0.295426 1.97131 1.63257e-15 -9.13469e-17 -1.57725e-15)
(2.47869e-16 0.277033 2.02202 1.39085e-15 -8.04893e-17 -1.41911e-15)
(0 0.260477 2.07012 1.23878e-15 -4.41768e-17 -1.29462e-15)
(-2.45113e-16 0.245524 2.11577 1.12193e-15 -2.2721e-17 -1.06876e-15)
(2.43747e-16 0.231947 2.1592 9.12717e-16 -5.86675e-17 -9.46155e-16)
(2.42388e-16 0.219603 2.20058 7.71917e-16 -8.97004e-17 -8.67498e-16)
(0 0.208271 2.2401 7.5153e-16 -6.13835e-17 -7.88906e-16)
(0 0.197897 2.2779 6.88862e-16 -2.25734e-17 -7.21565e-16)
(0 0.188306 2.3141 6.15271e-16 2.3315e-17 -5.79861e-16)
(-2.37029e-16 0.179447 2.3488 6.08527e-16 6.18212e-17 -5.0844e-16)
(0 0.17123 2.38207 5.78073e-16 9.28904e-17 -4.38738e-16)
(2.34393e-16 0.163606 2.41402 5.10454e-16 1.24777e-16 -4.24801e-16)
(0 0.156489 2.44472 4.45379e-16 1.22101e-16 -3.83372e-16)
(0 0.149831 2.47431 3.48682e-16 1.14413e-16 -4.45587e-16)
(0 0.143627 2.50275 2.93473e-16 1.30402e-16 -3.89747e-16)
(2.29211e-16 0.137754 2.53017 2.87086e-16 1.29485e-16 -3.60112e-16)
(0 0.132283 2.55661 3.2813e-16 1.39581e-16 -3.18907e-16)
(-4.53325e-16 0.127133 2.58212 3.60978e-16 2.11428e-16 -2.9371e-16)
(0 0.122261 2.60674 2.99154e-16 2.8581e-16 -2.64896e-16)
(2.24142e-16 0.117664 2.63057 2.76595e-16 2.98457e-16 -2.19792e-16)
(-6.68679e-16 0.113299 2.65355 3.05765e-16 3.23533e-16 -1.61287e-16)
(0 0.109164 2.67573 2.68784e-16 3.44805e-16 -1.15715e-16)
(0 0.105291 2.69729 1.8679e-16 2.72571e-16 -1.36505e-16)
(0 0.101604 2.7181 1.27114e-16 2.16092e-16 -1.80503e-16)
(-2.17965e-16 0.098064 2.73824 1.23858e-16 2.96953e-16 -1.67384e-16)
(0 0.0947043 2.75776 1.60181e-16 3.59377e-16 -1.70497e-16)
(-2.15541e-16 0.0914866 2.77671 1.60644e-16 4.08409e-16 -1.65835e-16)
(-4.2868e-16 0.0884444 2.79503 1.12909e-16 4.40103e-16 -1.49375e-16)
(0 0.0855399 2.81277 9.96881e-17 3.95479e-16 -8.13238e-17)
(0 0.0827705 2.83008 1.13512e-16 4.21539e-16 -7.76895e-17)
(-2.10775e-16 0.0800999 2.8468 8.49371e-17 4.24097e-16 -5.01408e-17)
(0 0.0775259 2.86304 4.2056e-17 4.3936e-16 -1.07504e-16)
(2.08432e-16 0.0751169 2.87883 -2.41375e-18 4.75316e-16 -7.00402e-17)
(2.0727e-16 0.0728014 2.89414 5.61899e-18 4.05771e-16 -8.49233e-17)
(0 0.0705437 2.90905 8.71396e-17 4.01116e-16 -7.52929e-17)
(0 0.068343 2.92346 6.94053e-17 4.64808e-16 -9.07757e-17)
(0 0.0662663 2.93748 1.106e-17 4.58045e-16 -9.4735e-17)
(0 0.0643118 2.95115 7.38209e-17 4.12613e-16 -7.34875e-17)
(4.03115e-16 0.0623772 2.96441 9.96656e-17 4.62463e-16 -1.25707e-16)
(0 0.0605286 2.97732 6.76776e-17 5.06863e-16 -9.14891e-17)
(0 0.0587322 2.98988 7.4666e-17 4.79295e-16 -1.06572e-16)
(0 0.0569866 3.00212 5.64561e-17 4.32487e-16 -8.87879e-17)
(0 0.0553572 3.01397 7.68955e-17 3.76989e-16 -8.33409e-17)
(0 0.0537767 3.02555 9.84934e-17 4.21723e-16 -2.72208e-17)
(0 0.0522123 3.03677 5.89193e-17 4.60759e-16 -5.59307e-17)
(0 0.0506956 3.04773 4.4301e-17 3.92953e-16 -4.23211e-17)
(-3.85485e-16 0.0492586 3.05838 8.17598e-17 3.33969e-16 -1.19498e-16)
(0 0.047836 3.06871 8.65357e-17 3.64709e-16 -1.81188e-16)
(3.81199e-16 0.0464909 3.07887 5.54621e-18 3.97412e-16 -2.27376e-16)
(0 0.0451598 3.08868 6.24338e-17 3.52972e-16 -1.19917e-16)
(-3.76961e-16 0.0438729 3.09822 1.53124e-16 3.85695e-16 2.76725e-17)
(-3.7486e-16 0.0426617 3.10753 9.07227e-17 3.36816e-16 5.37213e-17)
(0 0.0414316 3.11658 9.24781e-17 2.21598e-16 -5.21344e-17)
(0 0.0402446 3.12546 1.61312e-16 2.31402e-16 -5.37634e-17)
(-3.68626e-16 0.0391308 3.13402 1.51784e-16 2.06205e-16 6.55956e-18)
(3.66571e-16 0.0380284 3.1424 1.66047e-17 1.98782e-16 -1.74898e-16)
(3.64528e-16 0.0369369 3.15057 -4.90869e-17 2.28087e-16 -2.34273e-16)
(0 0.0358867 3.15851 6.64336e-17 2.72735e-16 -8.1954e-17)
(-3.60475e-16 0.034847 3.16627 8.46704e-17 2.79506e-16 -2.69069e-17)
(3.58466e-16 0.0338475 3.17377 -2.66212e-17 2.61764e-16 -8.72057e-17)
(3.56468e-16 0.0328878 3.18109 -7.26045e-17 2.07124e-16 -1.24977e-16)
(3.54481e-16 0.0319672 3.18823 1.10304e-17 8.83776e-17 -9.97073e-17)
(0 0.0310267 3.19516 1.26061e-16 8.98669e-17 -1.37679e-16)
(7.01079e-16 0.0300954 3.20194 1.12035e-16 2.02513e-16 -1.8016e-16)
(3.48586e-16 0.0292317 3.20851 1.14697e-17 2.15637e-16 -1.02516e-16)
(0 0.0283766 3.2149 -9.68636e-18 1.67889e-16 -2.28121e-16)
(3.4471e-16 0.0275302 3.22111 9.19073e-17 1.73272e-16 -1.7268e-16)
(-3.42789e-16 0.0266924 3.22714 1.73624e-16 1.45822e-16 -9.32958e-17)
(0 0.025863 3.23304 1.47642e-16 1.75348e-16 -1.15249e-16)
(3.38978e-16 0.0250701 3.23877 6.02052e-17 2.36944e-16 -1.48545e-16)
(0 0.0243135 3.24427 3.7826e-17 1.79683e-16 -1.30631e-16)
(-6.70418e-16 0.0235366 3.24968 1.09884e-16 2.27299e-16 4.76471e-18)
(-3.33341e-16 0.0227952 3.25492 1.55602e-16 2.13747e-16 8.57603e-17)
(0 0.0220616 3.26002 1.0344e-16 1.1078e-16 5.3073e-18)
(3.29635e-16 0.0213079 3.2649 -3.04163e-17 1.22767e-16 -6.74052e-17)
(-3.27797e-16 0.0206164 3.26969 -4.01497e-17 1.48013e-16 -6.99376e-18)