/*--------------------------------*- C++ -*----------------------------------*\
| =========                 |                                                 |
| \\      /  F ield         | OpenFOAM: The Open Source CFD Toolbox           |
|  \\    /   O peration     | Version:  4.x                                   |
|   \\  /    A nd           | Web:      www.OpenFOAM.org                      |
|    \\/     M anipulation  |                                                 |
\*---------------------------------------------------------------------------*/
FoamFile
{
    version     2.0;
    format      ascii;
    class       volVectorField;
    location    "99.27";
    object      Upinelli;
}
// * * * * * * * * * * * * * * * * * * * * * * * * * * * * * * * * * * * * * //

dimensions      [0 1 -1 0 0 0 0];

internalField   nonuniform List<vector> 
15625
(
(0.0006447576449967136 -2.3246868243326674e-10 -2.3246868243326712e-10)
(0.0017917532704841532 7.787802297480001e-08 -6.394283433197103e-08)
(0.0028495974330912813 7.124059624139003e-07 -2.9916350633219923e-07)
(0.003856213060390804 2.594467411250501e-06 -7.02706465154512e-07)
(0.004826963617731777 6.33534725279057e-06 -1.2331114315243633e-06)
(0.0057698515921226195 1.2377872381275163e-05 -1.8453856707997315e-06)
(0.006689402368926808 2.110560489246877e-05 -2.5400861206088728e-06)
(0.007588047667508952 3.2905129733374404e-05 -3.323825321482434e-06)
(0.008466736485352257 4.828335487938014e-05 -4.236431524331534e-06)
(0.009325242874849761 6.782788258156783e-05 -5.288258372779328e-06)
(0.01016239546142144 9.216858992961337e-05 -6.478408903908914e-06)
(0.010976286200267475 0.00012188470896814642 -7.78705219064137e-06)
(0.011764439738257556 0.00015738298065627975 -9.150764861649203e-06)
(0.012524090620567306 0.00019882627089903198 -1.0509728756547557e-05)
(0.013252402341164565 0.00024612386475119584 -1.1801847323307802e-05)
(0.013946664460111283 0.0002988751333386969 -1.2953226517024238e-05)
(0.014604534979823643 0.0003564463506063276 -1.3915584840729039e-05)
(0.015224055865479036 0.00041802302372892844 -1.466171210441065e-05)
(0.01580390657415917 0.00048264372237728277 -1.516806059222903e-05)
(0.01634322167539339 0.0005492904916306632 -1.542343178236006e-05)
(0.01684181001219227 0.000616945131819336 -1.5446187427327836e-05)
(0.01729989909371401 0.000684625568204679 -1.5256698680503688e-05)
(0.017718234928548494 0.0007514255744952291 -1.4870974556066538e-05)
(0.018097890330929168 0.0008165340545182344 -1.4314575286733628e-05)
(0.018440293899924774 0.0008792613319825045 -1.3625333144664224e-05)
(0.018747053582778426 0.00093902354187043 -1.283234635329929e-05)
(0.01901995709022783 0.000995356617119144 -1.1953626227550104e-05)
(0.019260884562459293 0.0010478901601751055 -1.101174399436526e-05)
(0.019471806636632425 0.001096365979747974 -1.0035434567495068e-05)
(0.01965470884768961 0.0011405943731212461 -9.04586602662433e-06)
(0.0198115583159668 0.0011804835385526413 -8.051640766785095e-06)
(0.01994433742936108 0.0012159875274924314 -7.063520125939925e-06)
(0.020054990185617457 0.0012471443294175637 -6.0989793959783166e-06)
(0.020145468664257392 0.0012740175180182643 -5.172395649711806e-06)
(0.020217611839396916 0.00129671761932127 -4.282190278388915e-06)
(0.020273260599965485 0.001315371572024772 -3.4243635296279224e-06)
(0.020314143319479682 0.0013301216337781596 -2.6049418573973596e-06)
(0.020341962163249152 0.001341121019487759 -1.8341841880644236e-06)
(0.020358288332622314 0.0013485388484416458 -1.1130606062429426e-06)
(0.02036457223147818 0.0013525598290040407 -4.337134799529552e-07)
(0.020362238093082408 0.0013533705360488208 2.067128484408714e-07)
(0.020352609411036195 0.0013511525543902934 7.994025404913399e-07)
(0.020337002407031835 0.0013460990811788186 1.3356044455268817e-06)
(0.02031657217200082 0.0013384453853596814 1.8169383661159137e-06)
(0.0202924333645031 0.001328446689570894 2.248789675847296e-06)
(0.020265590998873054 0.0013163349712667816 2.6332608404550817e-06)
(0.020236935321272506 0.0013023178303817968 2.9690296354069387e-06)
(0.020207303644014896 0.0012866047915146396 3.256533719638019e-06)
(0.02017732499276943 0.0012693997215400845 3.5021955578889035e-06)
(0.02014758893616706 0.0012509066695239129 3.7136116976780146e-06)
(0.02011851431894686 0.0012312797856406936 3.896263744980673e-06)
(0.020090406682963125 0.0012106405127155662 4.054244838021085e-06)
(0.02006356547723262 0.0011890895929304928 4.193213237402641e-06)
(0.020038268578023436 0.001166676168176148 4.322292769057097e-06)
(0.0200148030226868 0.0011434435913530237 4.4499969255055655e-06)
(0.019993509274164326 0.001119435428936483 4.571745522962366e-06)
(0.01997476357289284 0.001094696284089534 4.675268389868537e-06)
(0.019958939535042745 0.0010693003584942142 4.752545014965765e-06)
(0.019946391055515662 0.0010433836394752498 4.805350982133479e-06)
(0.019937466148926043 0.0010170928499237772 4.83637697111635e-06)
(0.01993239409462929 0.0009905638705945427 4.844012081968119e-06)
(0.01993133513227125 0.0009639279593872396 4.82405494465684e-06)
(0.019934376198937898 0.000937311192834721 4.776487242334801e-06)
(0.019941425124218617 0.0009108213353347598 4.711573499331768e-06)
(0.01995235594287294 0.000884563715138349 4.64044637474825e-06)
(0.019966996675912917 0.000858612024801147 4.5623771080151315e-06)
(0.019985140457758694 0.0008330182368801121 4.468214167908162e-06)
(0.020006538750648444 0.0008078442568751474 4.35302101207485e-06)
(0.020030835684394965 0.0007831800300146482 4.225626635613818e-06)
(0.020057650090570138 0.0007591202772089204 4.097191131177891e-06)
(0.020086694868234573 0.0007357094353794172 3.9692071231099285e-06)
(0.020117767075257316 0.0007129464537034407 3.834400421988964e-06)
(0.020150659954394176 0.0006908342624903268 3.6889073585876894e-06)
(0.020185161494833216 0.000669399161502703 3.5446534206928883e-06)
(0.0202210557692256 0.0006486708028991359 3.4176377954617233e-06)
(0.02025821679560253 0.0006285828128148715 3.314184984478154e-06)
(0.020296627163611258 0.000608954184785136 3.2289918839491307e-06)
(0.02033628308299475 0.0005896203213927428 3.1560414270802974e-06)
(0.020377226413656593 0.0005705720164383486 3.0898379801263775e-06)
(0.020419514428287273 0.0005518549304525514 3.0249555785699395e-06)
(0.020463118552257138 0.0005334960788067382 2.9561770416126087e-06)
(0.02050787606350569 0.0005154926931293741 2.8787073244878846e-06)
(0.020553616450854153 0.0004978520076568447 2.7883483253775848e-06)
(0.020600231855339803 0.00048067702542938396 2.6860557333502005e-06)
(0.0206476406943565 0.00046411673233618165 2.5752302851032597e-06)
(0.02069565186520207 0.0004482451850226706 2.4603663149618828e-06)
(0.020743864533587307 0.00043298643396136847 2.34794633528269e-06)
(0.020791858273774506 0.00041825291835175996 2.2443336008663938e-06)
(0.020839356305327916 0.0004040313162157775 2.1509951433973293e-06)
(0.0208861594190938 0.00039034984738736683 2.0666429347077582e-06)
(0.02093210980448448 0.00037718984245789364 1.9899091880266854e-06)
(0.020977147529027577 0.0003644265951176897 1.9193670908634536e-06)
(0.021021225067967546 0.00035193437657235195 1.853328065390454e-06)
(0.021064298669463695 0.0003397622511050951 1.7878717861523243e-06)
(0.021106326127003517 0.0003280664936314824 1.7176907622799734e-06)
(0.02114719837594052 0.0003168930229813866 1.6442563653223258e-06)
(0.021186657173512122 0.00030603022678096325 1.584541723509512e-06)
(0.021224502900603123 0.0002952556183236643 1.5541466476831892e-06)
(0.02126135715913265 0.0002846373487956741 1.5307345316069531e-06)
(0.02129831575224543 0.00027441101298625114 1.4700996226525606e-06)
(0.02133559511671568 0.0002647166051323345 1.361580683297834e-06)
(0.02137165738462546 0.00025549752259967554 1.2615780833051942e-06)
(0.021404978006273098 0.00024665658026084067 1.22602881803547e-06)
(0.021435880004092134 0.0002379789010531548 1.2409347021145215e-06)
(0.021465512904320874 0.00022919536604718038 1.2609002885932918e-06)
(0.021494247486338446 0.00022017269408565682 1.2661083670334714e-06)
(0.021521333617834166 0.00021097345137758482 1.2736785324656765e-06)
(0.021546110063784263 0.0002016598960801417 1.2975163332404914e-06)
(0.02156876170930049 0.0001922210021261865 1.32312336539079e-06)
(0.021589695904275688 0.0001826268951175237 1.3292536368624916e-06)
(0.02160893691369663 0.00017288484720357687 1.3221464623000472e-06)
(0.021626184530936905 0.00016303329085074603 1.3312813717589919e-06)
(0.021641105926223585 0.00015304358417336038 1.3709715243091125e-06)
(0.021653328083954523 0.0001427347480576441 1.4192284469682812e-06)
(0.02166262344921737 0.00013194901363647373 1.4529451635230178e-06)
(0.02166973818600337 0.00012082300699314916 1.4755112914224616e-06)
(0.021675759748221092 0.00010959272909042306 1.5004522085426226e-06)
(0.021680777218175188 9.815347495273177e-05 1.5369599074312152e-06)
(0.021683950127767897 8.608421813267343e-05 1.5901050784446292e-06)
(0.02168500533432451 7.332069561637759e-05 1.6548147860937419e-06)
(0.02168491676640999 6.0559813079475886e-05 1.7055629071452706e-06)
(0.021684657405598422 4.816493270666357e-05 1.7211249223972535e-06)
(0.021684422373435822 3.4532068074631456e-05 1.7130380866607164e-06)
(0.021684189368771874 1.7456075152055152e-05 1.7024885027469482e-06)
(0.02168393532297571 -5.342230695442909e-06 1.7113859857575955e-06)
(0.0017917532704841527 -6.394283433197106e-08 7.787802297479997e-08)
(0.005145268432207291 -3.008154498581121e-07 -3.008154498581121e-07)
(0.0082941893772844 4.878825234992674e-07 -1.9978760565553774e-06)
(0.011305339587577479 4.022574414402247e-06 -5.051085733298059e-06)
(0.014214854861789711 1.1948503782063046e-05 -9.227201853873153e-06)
(0.017043571989530135 2.570487787474043e-05 -1.4283890923449749e-05)
(0.019803760414312623 4.665773916761923e-05 -2.0210012869718584e-05)
(0.02250205833423496 7.622161470419002e-05 -2.7070571328756078e-05)
(0.025140933150477666 0.00011597984642993174 -3.506112664155761e-05)
(0.027719438493152455 0.00016760010222477577 -4.4218097704280677e-05)
(0.030233854733823468 0.0002326899756580291 -5.445625775850313e-05)
(0.03267829389548411 0.0003125978635138067 -6.553583794640987e-05)
(0.03504519562205835 0.0004081815187414284 -7.697790699638492e-05)
(0.03732617282632806 0.000519650561748931 -8.828613939574191e-05)
(0.039512662684921755 0.0006465865609977987 -9.895316542489268e-05)
(0.0415965193529335 0.0007878451213499273 -0.00010845080924754908)
(0.04357073568247919 0.0009417378486641747 -0.00011640696143714605)
(0.04542948258048287 0.0011061556905963504 -0.00012258425399273878)
(0.04716886512768526 0.0012786572965173622 -0.00012682610473370272)
(0.048786361357348006 0.0014566725593927671 -0.00012906852944358446)
(0.05028147224091809 0.0016376354690964203 -0.00012942432340541462)
(0.051654948815707424 0.0018190624965830175 -0.00012803905684377034)
(0.05290908656109591 0.0019986456338504316 -0.00012506598440709555)
(0.054047152132819506 0.0021743020267515623 -0.000120709173967821)
(0.055073468256590145 0.0023442374971522502 -0.00011523412145162702)
(0.055992882852481 0.002506904173111682 -0.00010886440657938623)
(0.05681076870275358 0.0026610338154761837 -0.00010176971124435102)
(0.05753277169112427 0.002805594376994296 -9.413525688288373e-05)
(0.05816480480307405 0.00293983872777007 -8.616738775692735e-05)
(0.05871282035415718 0.003063186514794653 -7.803040854393628e-05)
(0.05918270760698307 0.0031752963962582807 -6.981929571472314e-05)
(0.05958040296830952 0.0032759476951248903 -6.16350462298145e-05)
(0.059911732443198626 0.0033651474104155806 -5.36012191197021e-05)
(0.0601825474174005 0.003442971451498548 -4.582242163892218e-05)
(0.06039836226642898 0.0035096286840212614 -3.8313466191431295e-05)
(0.0605646979690197 0.0035653773766177134 -3.107448858845126e-05)
(0.06068674071325159 0.003610558257188459 -2.4150680635249328e-05)
(0.060769598836382104 0.003645559288375577 -1.7606003693040293e-05)
(0.06081797769050243 0.00367080154109525 -1.1452119875924333e-05)
(0.06083621062910963 0.0036867387472237436 -5.651014806688612e-06)
(0.06082855632671846 0.0036938431555553065 -1.9187162847267296e-07)
(0.06079898080879404 0.00369260457749667 4.872647989619619e-06)
(0.06075143040441385 0.0036835409721762517 9.490135349738921e-06)
(0.06068937377323655 0.003667241458017732 1.366446488836004e-05)
(0.06061616052008985 0.003644333795418119 1.7420230977416768e-05)
(0.060534812133831495 0.0036154167237576838 2.0772375973083802e-05)
(0.060448006642370856 0.003581058335170453 2.3725756853914262e-05)
(0.06035826273048559 0.003541820988314919 2.6294163783862472e-05)
(0.060267471934488705 0.003498212292760293 2.8519882231362345e-05)
(0.06017740625205462 0.0034507358720314817 3.045134120911694e-05)
(0.06008931543505453 0.0033998125088097408 3.212966700552308e-05)
(0.06000410233756536 0.0033458105949260063 3.359146283170451e-05)
(0.059922659036951 0.0032890488617141364 3.4880913792663375e-05)
(0.05984583095941705 0.003229717654725672 3.6058155141326705e-05)
(0.05977449156235953 0.003167993930159897 3.7179175446293755e-05)
(0.05970965194615063 0.003104046822655313 3.822185147901885e-05)
(0.05965241725334841 0.003038043951530841 3.911822716211537e-05)
(0.0596038981581123 0.0029702046970914607 3.981925601560065e-05)
(0.0595651762403777 0.002900852913660718 4.032024261202596e-05)
(0.059537317703178425 0.0028303375365433324 4.0621338307532815e-05)
(0.059521010092261274 0.0027590328894861343 4.0713510326433104e-05)
(0.05951672035976358 0.0026873337467845765 4.0582193572432665e-05)
(0.0595247038954956 0.002615603167144426 4.023618583613891e-05)
(0.05954469979261633 0.002544109400077233 3.974100963970554e-05)
(0.05957634780407069 0.002473110568873588 3.9166954828128954e-05)
(0.059619130686678755 0.002402827111258066 3.851544933207035e-05)
(0.05967241307106241 0.0023334549121225515 3.773908528712621e-05)
(0.059735437516967756 0.0022651865247121173 3.681483072823757e-05)
(0.0598071352111281 0.0021981938354318593 3.5798886123571294e-05)
(0.05988636319262063 0.00213264629842956 3.4760784524774753e-05)
(0.05997225603384617 0.002068666928964591 3.3710212701763274e-05)
(0.06006419653166837 0.002006337003583785 3.260258896128645e-05)
(0.06016156445127109 0.0019457285473963393 3.141704943143683e-05)
(0.06026375935215578 0.0018868756958442157 3.02409910795153e-05)
(0.06037017816467786 0.0018297973452522439 2.91898764311193e-05)
(0.06048045785945206 0.001774338978620698 2.831274960365595e-05)
(0.06059452533748778 0.001720139294641975 2.7578797160970073e-05)
(0.06071234879944403 0.0016668625470396055 2.6950138902034868e-05)
(0.06083405037907812 0.0016144364605734898 2.6379596518869595e-05)
(0.06095980469150132 0.001562881679543813 2.5815734129338123e-05)
(0.06108954334704046 0.001512255145633917 2.521237773874745e-05)
(0.061222818034125624 0.0014626698533562947 2.453245870273449e-05)
(0.06135914831028856 0.0014142531331873599 2.374551299828575e-05)
(0.061498153507567654 0.0013671837169777466 2.287208117505434e-05)
(0.061639489925383005 0.0013216664256483273 2.1956946103499243e-05)
(0.061782542374986725 0.0012777989281337785 2.103907581838695e-05)
(0.06192618049098426 0.0012354652417373528 2.0144547194488416e-05)
(0.06206921944947522 0.0011945302661394333 1.929776809857649e-05)
(0.062210804108135315 0.0011549441557780569 1.851497290740779e-05)
(0.06235025458349422 0.0011167040641464792 1.7807933436417984e-05)
(0.06248707415513975 0.0010797423710071615 1.7176353841470308e-05)
(0.06262119536408622 0.0010438471599567428 1.6592782769531535e-05)
(0.0627525931852415 0.0010088075707114566 1.6026455759327158e-05)
(0.06288108547133665 0.0009746891997312456 1.545824401114622e-05)
(0.06300639116106493 0.0009417269507951875 1.4876050099702005e-05)
(0.06312811034645732 0.0009099746082449075 1.4299052105747292e-05)
(0.06324558874056921 0.0008790645394142521 1.3817049107144605e-05)
(0.0633583614080563 0.0008486110295870071 1.3509546391563937e-05)
(0.0634682704083022 0.0008187074556833881 1.3241428785880072e-05)
(0.06357849048248099 0.0007897228612498562 1.2753832702995256e-05)
(0.06368962846697537 0.0007618661647889203 1.198901936205025e-05)
(0.06379717018524139 0.0007350179769044427 1.1290991780383395e-05)
(0.0638966395767835 0.0007089824939607742 1.1001535201542305e-05)
(0.063988952841821 0.000683309836107835 1.1046421757359845e-05)
(0.0640774382845988 0.0006574328821438996 1.1164395909444956e-05)
(0.06416316740939003 0.0006310604481210511 1.1227897249438446e-05)
(0.06424396324918569 0.0006042995033303078 1.1302886643984306e-05)
(0.06431791104200593 0.0005772640212058642 1.1444101192809424e-05)
(0.06438556865090453 0.000549955101302342 1.1584977847080453e-05)
(0.06444813998165949 0.0005223403420903367 1.1631581315624023e-05)
(0.06450563579946406 0.0004943642815260207 1.163275451555248e-05)
(0.06455705631707402 0.0004659512325293021 1.1758081482157306e-05)
(0.06460137773901596 0.000436952379049977 1.208391997630076e-05)
(0.0646376257697315 0.0004070608209832504 1.2465401384704818e-05)
(0.06466525571011625 0.0003760235033947154 1.2752428282442033e-05)
(0.06468644031515211 0.0003440915983509064 1.2967682242355784e-05)
(0.06470430535038592 0.00031168383715017843 1.3199605786231933e-05)
(0.06471916563379418 0.00027857700718935004 1.3501771687899213e-05)
(0.0647287186146615 0.00024395307885839316 1.3894769847826037e-05)
(0.06473220893922145 0.00020782520120607754 1.4345050733630334e-05)
(0.06473228856022213 0.00017196417200955843 1.4710918791271448e-05)
(0.06473162425678335 0.00013715054850745178 1.4874996930619346e-05)
(0.0647308356772566 9.862613272426157e-05 1.4900800518248757e-05)
(0.06472997292582043 4.993435943246593e-05 1.4905117945358518e-05)
(0.06472908782518279 -1.5598091060411424e-05 1.5008729905013835e-05)
(0.0028495974330912817 -2.9916350633219907e-07 7.124059624139005e-07)
(0.008294189377284397 -1.997876056555377e-06 4.878825234992673e-07)
(0.013480229784908046 -3.1522722681816408e-06 -3.152272268181641e-06)
(0.018470319218474283 -1.1157968888536005e-06 -1.0296659077177922e-05)
(0.023306175334135718 6.671535034652368e-06 -2.050728975394583e-05)
(0.028014743227379953 2.26549246742979e-05 -3.339443841310305e-05)
(0.03261268972721192 4.928489505721479e-05 -4.894351746570313e-05)
(0.03710896646312859 8.912942910930388e-05 -6.732482986671516e-05)
(0.041506357163684345 0.0001448725157320818 -8.880488997475569e-05)
(0.04580237816245436 0.00021915435369347674 -0.00011333482668859667)
(0.04999019726717496 0.0003143101843819851 -0.00014051369540719452)
(0.05405959198998956 0.0004321210608258217 -0.00016956489753855084)
(0.05799777266582355 0.0005735576191986397 -0.00019929705389708889)
(0.06179076025434136 0.0007386129910489387 -0.00022843644030876945)
(0.06542443910524633 0.0009263988277223913 -0.00025571467234473326)
(0.06888554828288924 0.0011350700802196638 -0.0002799384334407465)
(0.07216279159997976 0.0013620900875412846 -0.000300232951892579)
(0.07524687674437454 0.001604395201796904 -0.0003160079482964728)
(0.07813174725562608 0.0018585337328024258 -0.0003269447807952492)
(0.08081361383349332 0.002120908555209007 -0.0003329399759710018)
(0.08329198310243746 0.0023879557221668677 -0.00033422992890008973)
(0.08556838326206534 0.002656226272501688 -0.00033115126308234905)
(0.0876468284544022 0.0029225080505408973 -0.00032411567203428557)
(0.08953289104301324 0.003183879416700095 -0.0003136200007466785)
(0.09123383385359911 0.003437791376865639 -0.0003002561539039176)
(0.09275774227919435 0.003682011528649553 -0.0002845552173391342)
(0.09411351920034892 0.003914667916133589 -0.00026696841642844074)
(0.09531050161242245 0.004134201484434973 -0.00024795462130198343)
(0.09635844952498238 0.004339432485765107 -0.00022798343525231739)
(0.0972671776090198 0.004529405811577419 -0.00020745061899608367)
(0.09804638234409076 0.004703491160153896 -0.0001866309252492144)
(0.09870584182323562 0.004861225051701741 -0.00016579754085323654)
(0.09925516339563376 0.005002464973355292 -0.00014523294570595617)
(0.09970400365527993 0.005127170515168797 -0.0001251834929726288)
(0.10006148458387853 0.005235517961600011 -0.00010573733330588443)
(0.10033674382371661 0.005327763307675013 -8.695443172993724e-05)
(0.10053835997225578 0.0054043200206691224 -6.89474099330372e-05)
(0.10067477985173721 0.0054656866561175865 -5.18501366463677e-05)
(0.10075377079161764 0.005512419492430916 -3.570300733516387e-05)
(0.10078247250089568 0.005545131282714826 -2.0457691374744443e-05)
(0.10076790275401287 0.005564469445414062 -6.109647621590105e-06)
(0.10071660047584584 0.005571124192861898 7.24308523164607e-06)
(0.1006350796645082 0.005565824112570455 1.95024335379301e-05)
(0.1005291073176519 0.005549375505411476 3.065995013572676e-05)
(0.1004042704139611 0.005522631765597932 4.074085473953083e-05)
(0.10026561698648544 0.005486436070568072 4.977543827956259e-05)
(0.10011763084285233 0.005441620369572503 5.77992161078041e-05)
(0.09996452766932444 0.0053890055970715915 6.486128984746271e-05)
(0.09980946735553052 0.005329319271172862 7.104910285774289e-05)
(0.09965540885779299 0.005263283052628192 7.64599341912945e-05)
(0.09950444246656431 0.005191531427584638 8.118985724994556e-05)
(0.09935808162580725 0.0051146460452701605 8.533529120887689e-05)
(0.0992178242953539 0.0050331479558790694 8.90025267792667e-05)
(0.09908509586844913 0.004947394965450637 9.23161835995801e-05)
(0.09896136487753339 0.004857729447908523 9.539215509743558e-05)
(0.09884828255633804 0.004764467672280426 9.820319491683236e-05)
(0.0987476292498928 0.004667916014097725 0.00010063818971787923)
(0.09866121559594307 0.004568431073123018 0.0001026060017162903)
(0.0985908520364914 0.004466465140194228 0.00010406460562215602)
(0.0985383285642251 0.0043625030402192014 0.00010497910547933444)
(0.09850478951198038 0.004257105657567527 0.00010533134345377711)
(0.09849100288644516 0.004150887404348221 0.00010511321384017306)
(0.0984974043029576 0.004044410992485228 0.00010435922628647221)
(0.0985236179355488 0.003938085219989722 0.00010320583816690306)
(0.09856910686177844 0.003832303158678741 0.00010179840889023076)
(0.09863301636443704 0.003727413730058818 0.00010015607099858334)
(0.09871425510568925 0.003623738005681428 9.820862057825653e-05)
(0.09881154268769822 0.0035215709468961786 9.592988262397629e-05)
(0.09892312742390923 0.003421110602611192 9.343579712726398e-05)
(0.09904714183085926 0.00332254097708562 9.086584055051337e-05)
(0.09918214217881098 0.0032260437292633837 8.823783215372676e-05)
(0.09932706323426739 0.0031317989924842817 8.545926679607572e-05)
(0.09948087876611644 0.0030399637285776536 8.249105684304369e-05)
(0.0996427828254277 0.002950585787055379 7.953547018497904e-05)
(0.09981201298994115 0.0028636785512402463 7.685765573738167e-05)
(0.09998804083408601 0.0027790563784791953 7.457861253601864e-05)
(0.10017062174075428 0.002696296375807104 7.264593891753189e-05)
(0.10035958041363527 0.0026150014426856508 7.098637228782748e-05)
(0.10055508276481556 0.0025350589780908464 6.947357429939205e-05)
(0.10075741245333948 0.0024564568256922547 6.795998145649685e-05)
(0.10096649824388941 0.0023792763281323633 6.632520453483715e-05)
(0.10118171362938849 0.00230374439253016 6.449374278705422e-05)
(0.10140235527513335 0.002230097056627151 6.240883054166057e-05)
(0.10162763736759176 0.0021585035246519725 6.014020085549017e-05)
(0.10185671773332755 0.002089103491433551 5.781787553863463e-05)
(0.10208845801771518 0.0020219448167239184 5.553853584281682e-05)
(0.10232117349047014 0.0019568941487802397 5.3329663500413666e-05)
(0.10255310407054108 0.0018938010523251738 5.121315074879867e-05)
(0.1027827954412456 0.001832590271810348 4.922672301530343e-05)
(0.10300894743323417 0.0017732274570828128 4.741742766538093e-05)
(0.10323068691669034 0.001715630908113442 4.5794874566598946e-05)
(0.10344813664847023 0.0016596149833002206 4.428345485153771e-05)
(0.10366149426683913 0.001604995637095428 4.279912361473387e-05)
(0.1038702780241797 0.0015518081823550566 4.1311758946216235e-05)
(0.10407358443093272 0.0015002218394318209 3.98241304055085e-05)
(0.10427061216290036 0.0014502428610645394 3.8387412553539e-05)
(0.10446083648118555 0.001401500843118476 3.716056162942504e-05)
(0.10464406629610908 0.00135360973810499 3.627999439897142e-05)
(0.10482305984077271 0.0013066284740328848 3.548370715569254e-05)
(0.10500228139620602 0.0012608713974492521 3.427996765262642e-05)
(0.10518249972998377 0.0012164882050991269 3.2568616361649034e-05)
(0.10535712144308823 0.0011732937010776466 3.1031045526853475e-05)
(0.10551958789749252 0.0011310196971009885 3.0343768635649087e-05)
(0.10567096566362665 0.0010891143667556456 3.0367741698087685e-05)
(0.10581573186063903 0.0010468953160980019 3.059677671894877e-05)
(0.10595532975395744 0.0010040420787284612 3.0760266049729444e-05)
(0.10608683440151224 0.0009607554723344997 3.092943340708649e-05)
(0.106207669745964 0.0009172242316235941 3.117044684399389e-05)
(0.10631856626483117 0.0008733883521177436 3.1405756265694655e-05)
(0.10642110440490204 0.000829114769407923 3.152826105109171e-05)
(0.10651503950647816 0.0007842561871601499 3.164683958038349e-05)
(0.10659858082797675 0.000738652051795769 3.205305341694549e-05)
(0.10667011784252564 0.0006920687393399237 3.286827046371332e-05)
(0.10672860656175476 0.0006441173825298234 3.381319683292941e-05)
(0.10677364344659303 0.0005944805945156045 3.459740831532634e-05)
(0.10680840619143363 0.0005434621046197274 3.523575580023408e-05)
(0.10683733278465214 0.0004915752545757852 3.5860229684992704e-05)
(0.10686111661789074 0.000438605616044959 3.656882140895246e-05)
(0.10687696405176325 0.000383665675874073 3.742702780875831e-05)
(0.10688399726945166 0.00032696433548145366 3.839851889858934e-05)
(0.1068855734563262 0.0002710146952788427 3.924051810577168e-05)
(0.10688511468311679 0.00021671224084771453 3.974791766119739e-05)
(0.10688369826883173 0.0001562498718517658 4.001922033776429e-05)
(0.10688175842989867 7.914393054357447e-05 4.024214452326569e-05)
(0.106879744356417 -2.5441138098620026e-05 4.061083075608817e-05)
(0.0038562130603908037 -7.027064651545124e-07 2.5944674112505006e-06)
(0.011305339587577474 -5.051085733298059e-06 4.022574414402247e-06)
(0.018470319218474283 -1.0296659077177929e-05 -1.115796888853598e-06)
(0.025402746879866683 -1.2821434542056577e-05 -1.282143454205658e-05)
(0.03214109630013968 -9.166265193944724e-06 -3.04599110974463e-05)
(0.03871217795813485 4.075932458633176e-06 -5.3595547020611334e-05)
(0.0451329458990194 3.043022651855197e-05 -8.22697187112226e-05)
(0.05141196254940178 7.358575260401938e-05 -0.00011676028209739612)
(0.057550424402266286 0.00013728030390700176 -0.00015725489997124912)
(0.06354305710222731 0.00022499193644795565 -0.00020339047077984153)
(0.06937913245109593 0.00033959198363583444 -0.0002541422653223252)
(0.07504373445756686 0.00048307791930065827 -0.00030786332331571477)
(0.0805189543987493 0.0006563167393721371 -0.0003623703774197822)
(0.08578566715464322 0.0008589515398929258 -0.0004153696717821178)
(0.09082490767919514 0.0010895832928988385 -0.00046464587486345546)
(0.09561924883051469 0.001345739823243875 -0.0005082450382820943)
(0.10015413081719013 0.0016242236028417608 -0.0005447330145169094)
(0.10441785004301277 0.0019213010884772596 -0.0005731408572379807)
(0.10840316842246661 0.002232898231510886 -0.0005930135726424573)
(0.1121059228629136 0.0025548211232931184 -0.0006042481100299544)
(0.11552633070349265 0.0028829522071902453 -0.0006072380218886492)
(0.11866725257035145 0.0032133149345712876 -0.0006025558436036042)
(0.1215347668343363 0.003542209332213217 -0.0005909359852161203)
(0.12413697229014198 0.0038662477981139796 -0.0005732246736149592)
(0.1264841519260262 0.004182442137486136 -0.0005503845925391241)
(0.12858759294728095 0.004488138197497311 -0.000523304904694261)
(0.1304595665732865 0.004781062766048903 -0.0004927767461756949)
(0.132112900707371 0.005059273660527821 -0.0004595858256821625)
(0.13356096356270572 0.005321231942502529 -0.00042451091938872055)
(0.1348171689776194 0.0055656494733460704 -0.00038822806622646535)
(0.13589472758906446 0.005791605755003824 -0.0003512450153528256)
(0.13680696756326718 0.0059983647061405574 -0.00031405649025262393)
(0.13756700519920056 0.006185550669787982 -0.0002771421238152284)
(0.13818803499531562 0.00635291158124868 -0.00024093064210461046)
(0.13868255014513206 0.0065004867523620734 -0.00020563547983879312)
(0.13906307148405508 0.006628418688631641 -0.00017142946470768508)
(0.13934134419416047 0.0067370672318307545 -0.00013852590945578062)
(0.1395289283379098 0.00682690669078771 -0.0001071533149814322)
(0.13963644879182616 0.006898511665698225 -7.74053818595306e-05)
(0.13967366649714127 0.006952553819198065 -4.924792543351441e-05)
(0.13965016933229796 0.00698974768126795 -2.26986913554866e-05)
(0.13957487687271952 0.00701086144530716 2.101718996771805e-06)
(0.13945668973419031 0.0070167081447946155 2.5012206792525544e-05)
(0.13930358660533004 0.0070081923268458125 4.599874782125929e-05)
(0.13912333968538892 0.006986274411672569 6.506821793887503e-05)
(0.13892299400405894 0.006951927373875208 8.22574504674737e-05)
(0.1387088331194418 0.006906136586306237 9.763441119363445e-05)
(0.13848676967199547 0.006849885231432952 0.00011128661406556862)
(0.13826124713740573 0.00678407508596583 0.00012335209669389903)
(0.1380364328215624 0.006709607722238664 0.00013398328825402355)
(0.13781531092533064 0.006627277595667808 0.00014334021537377266)
(0.13760008141055127 0.006537814595897094 0.00015159009399081364)
(0.13739289167784108 0.0064418955154930315 0.00015891005530842625)
(0.13719571209784556 0.006340044547664387 0.00016549217623440217)
(0.13701056084967503 0.006232773742355231 0.00017151574554650635)
(0.13683969811554325 0.0061205402329208595 0.00017696378206510997)
(0.1366855560453269 0.006003776654775396 0.00018170452511309635)
(0.1365505959162538 0.005882966289125529 0.00018561548404593883)
(0.13643725236843354 0.005758684152588372 0.00018860162628317765)
(0.1363479370354001 0.005631540944201843 0.00019057488981682826)
(0.13628427423739845 0.005502225365655442 0.0001915041663493596)