/*--------------------------------*- C++ -*----------------------------------*\
| =========                 |                                                 |
| \\      /  F ield         | OpenFOAM: The Open Source CFD Toolbox           |
|  \\    /   O peration     | Version:  2306                                  |
|   \\  /    A nd           | Website:  www.openfoam.com                      |
|    \\/     M anipulation  |                                                 |
\*---------------------------------------------------------------------------*/
// * * * * * * * * * * * * * * * * * * * * * * * * * * * * * * * * * * * * * //
FoamFile
{
    version         2;
    format          ascii;
    class           volVectorField;
    location        "99.27";
    object          Udns;
}

dimensions      [ 0 1 -1 0 0 0 0 ];

internalField   nonuniform List<vector> 
15625
(
(0.000644758 -2.32469e-10 -2.32469e-10)
(0.00179175 7.7878e-08 -6.39428e-08)
(0.0028496 7.12406e-07 -2.99164e-07)
(0.00385621 2.59447e-06 -7.02706e-07)
(0.00482696 6.33535e-06 -1.23311e-06)
(0.00576985 1.23779e-05 -1.84539e-06)
(0.0066894 2.11056e-05 -2.54009e-06)
(0.00758805 3.29051e-05 -3.32383e-06)
(0.00846674 4.82834e-05 -4.23643e-06)
(0.00932524 6.78279e-05 -5.28826e-06)
(0.0101624 9.21686e-05 -6.47841e-06)
(0.0109763 0.000121885 -7.78705e-06)
(0.0117644 0.000157383 -9.15076e-06)
(0.0125241 0.000198826 -1.05097e-05)
(0.0132524 0.000246124 -1.18018e-05)
(0.0139467 0.000298875 -1.29532e-05)
(0.0146045 0.000356446 -1.39156e-05)
(0.0152241 0.000418023 -1.46617e-05)
(0.0158039 0.000482644 -1.51681e-05)
(0.0163432 0.00054929 -1.54234e-05)
(0.0168418 0.000616945 -1.54462e-05)
(0.0172999 0.000684626 -1.52567e-05)
(0.0177182 0.000751426 -1.4871e-05)
(0.0180979 0.000816534 -1.43146e-05)
(0.0184403 0.000879261 -1.36253e-05)
(0.0187471 0.000939024 -1.28323e-05)
(0.01902 0.000995357 -1.19536e-05)
(0.0192609 0.00104789 -1.10117e-05)
(0.0194718 0.00109637 -1.00354e-05)
(0.0196547 0.00114059 -9.04587e-06)
(0.0198116 0.00118048 -8.05164e-06)
(0.0199443 0.00121599 -7.06352e-06)
(0.020055 0.00124714 -6.09898e-06)
(0.0201455 0.00127402 -5.1724e-06)
(0.0202176 0.00129672 -4.28219e-06)
(0.0202733 0.00131537 -3.42436e-06)
(0.0203141 0.00133012 -2.60494e-06)
(0.020342 0.00134112 -1.83418e-06)
(0.0203583 0.00134854 -1.11306e-06)
(0.0203646 0.00135256 -4.33713e-07)
(0.0203622 0.00135337 2.06713e-07)
(0.0203526 0.00135115 7.99403e-07)
(0.020337 0.0013461 1.3356e-06)
(0.0203166 0.00133845 1.81694e-06)
(0.0202924 0.00132845 2.24879e-06)
(0.0202656 0.00131633 2.63326e-06)
(0.0202369 0.00130232 2.96903e-06)
(0.0202073 0.0012866 3.25653e-06)
(0.0201773 0.0012694 3.5022e-06)
(0.0201476 0.00125091 3.71361e-06)
(0.0201185 0.00123128 3.89626e-06)
(0.0200904 0.00121064 4.05424e-06)
(0.0200636 0.00118909 4.19321e-06)
(0.0200383 0.00116668 4.32229e-06)
(0.0200148 0.00114344 4.45e-06)
(0.0199935 0.00111944 4.57175e-06)
(0.0199748 0.0010947 4.67527e-06)
(0.0199589 0.0010693 4.75255e-06)
(0.0199464 0.00104338 4.80535e-06)
(0.0199375 0.00101709 4.83638e-06)
(0.0199324 0.000990564 4.84401e-06)
(0.0199313 0.000963928 4.82405e-06)
(0.0199344 0.000937311 4.77649e-06)
(0.0199414 0.000910821 4.71157e-06)
(0.0199524 0.000884564 4.64045e-06)
(0.019967 0.000858612 4.56238e-06)
(0.0199851 0.000833018 4.46821e-06)
(0.0200065 0.000807844 4.35302e-06)
(0.0200308 0.00078318 4.22563e-06)
(0.0200577 0.00075912 4.09719e-06)
(0.0200867 0.000735709 3.96921e-06)
(0.0201178 0.000712946 3.8344e-06)
(0.0201507 0.000690834 3.68891e-06)
(0.0201852 0.000669399 3.54465e-06)
(0.0202211 0.000648671 3.41764e-06)
(0.0202582 0.000628583 3.31418e-06)
(0.0202966 0.000608954 3.22899e-06)
(0.0203363 0.00058962 3.15604e-06)
(0.0203772 0.000570572 3.08984e-06)
(0.0204195 0.000551855 3.02496e-06)
(0.0204631 0.000533496 2.95618e-06)
(0.0205079 0.000515493 2.87871e-06)
(0.0205536 0.000497852 2.78835e-06)
(0.0206002 0.000480677 2.68606e-06)
(0.0206476 0.000464117 2.57523e-06)
(0.0206957 0.000448245 2.46037e-06)
(0.0207439 0.000432986 2.34795e-06)
(0.0207919 0.000418253 2.24433e-06)
(0.0208394 0.000404031 2.151e-06)
(0.0208862 0.00039035 2.06664e-06)
(0.0209321 0.00037719 1.98991e-06)
(0.0209771 0.000364427 1.91937e-06)
(0.0210212 0.000351934 1.85333e-06)
(0.0210643 0.000339762 1.78787e-06)
(0.0211063 0.000328066 1.71769e-06)
(0.0211472 0.000316893 1.64426e-06)
(0.0211867 0.00030603 1.58454e-06)
(0.0212245 0.000295256 1.55415e-06)
(0.0212614 0.000284637 1.53073e-06)
(0.0212983 0.000274411 1.4701e-06)
(0.0213356 0.000264717 1.36158e-06)
(0.0213717 0.000255498 1.26158e-06)
(0.021405 0.000246657 1.22603e-06)
(0.0214359 0.000237979 1.24093e-06)
(0.0214655 0.000229195 1.2609e-06)
(0.0214942 0.000220173 1.26611e-06)
(0.0215213 0.000210973 1.27368e-06)
(0.0215461 0.00020166 1.29752e-06)
(0.0215688 0.000192221 1.32312e-06)
(0.0215897 0.000182627 1.32925e-06)
(0.0216089 0.000172885 1.32215e-06)
(0.0216262 0.000163033 1.33128e-06)
(0.0216411 0.000153044 1.37097e-06)
(0.0216533 0.000142735 1.41923e-06)
(0.0216626 0.000131949 1.45295e-06)
(0.0216697 0.000120823 1.47551e-06)
(0.0216758 0.000109593 1.50045e-06)
(0.0216808 9.81535e-05 1.53696e-06)
(0.021684 8.60842e-05 1.59011e-06)
(0.021685 7.33207e-05 1.65481e-06)
(0.0216849 6.05598e-05 1.70556e-06)
(0.0216847 4.81649e-05 1.72112e-06)
(0.0216844 3.45321e-05 1.71304e-06)
(0.0216842 1.74561e-05 1.70249e-06)
(0.0216839 -5.34223e-06 1.71139e-06)
(0.00179175 -6.39428e-08 7.7878e-08)
(0.00514527 -3.00815e-07 -3.00815e-07)
(0.00829419 4.87883e-07 -1.99788e-06)
(0.0113053 4.02257e-06 -5.05109e-06)
(0.0142149 1.19485e-05 -9.2272e-06)
(0.0170436 2.57049e-05 -1.42839e-05)
(0.0198038 4.66577e-05 -2.021e-05)
(0.0225021 7.62216e-05 -2.70706e-05)
(0.0251409 0.00011598 -3.50611e-05)
(0.0277194 0.0001676 -4.42181e-05)
(0.0302339 0.00023269 -5.44563e-05)
(0.0326783 0.000312598 -6.55358e-05)
(0.0350452 0.000408182 -7.69779e-05)
(0.0373262 0.000519651 -8.82861e-05)
(0.0395127 0.000646587 -9.89532e-05)
(0.0415965 0.000787845 -0.000108451)
(0.0435707 0.000941738 -0.000116407)
(0.0454295 0.00110616 -0.000122584)
(0.0471689 0.00127866 -0.000126826)
(0.0487864 0.00145667 -0.000129069)
(0.0502815 0.00163764 -0.000129424)
(0.0516549 0.00181906 -0.000128039)
(0.0529091 0.00199865 -0.000125066)
(0.0540472 0.0021743 -0.000120709)
(0.0550735 0.00234424 -0.000115234)
(0.0559929 0.0025069 -0.000108864)
(0.0568108 0.00266103 -0.00010177)
(0.0575328 0.00280559 -9.41353e-05)
(0.0581648 0.00293984 -8.61674e-05)
(0.0587128 0.00306319 -7.80304e-05)
(0.0591827 0.0031753 -6.98193e-05)
(0.0595804 0.00327595 -6.1635e-05)
(0.0599117 0.00336515 -5.36012e-05)
(0.0601825 0.00344297 -4.58224e-05)
(0.0603984 0.00350963 -3.83135e-05)
(0.0605647 0.00356538 -3.10745e-05)
(0.0606867 0.00361056 -2.41507e-05)
(0.0607696 0.00364556 -1.7606e-05)
(0.060818 0.0036708 -1.14521e-05)
(0.0608362 0.00368674 -5.65101e-06)
(0.0608286 0.00369384 -1.91872e-07)
(0.060799 0.0036926 4.87265e-06)
(0.0607514 0.00368354 9.49014e-06)
(0.0606894 0.00366724 1.36645e-05)
(0.0606162 0.00364433 1.74202e-05)
(0.0605348 0.00361542 2.07724e-05)
(0.060448 0.00358106 2.37258e-05)
(0.0603583 0.00354182 2.62942e-05)
(0.0602675 0.00349821 2.85199e-05)
(0.0601774 0.00345074 3.04513e-05)
(0.0600893 0.00339981 3.21297e-05)
(0.0600041 0.00334581 3.35915e-05)
(0.0599227 0.00328905 3.48809e-05)
(0.0598458 0.00322972 3.60582e-05)
(0.0597745 0.00316799 3.71792e-05)
(0.0597097 0.00310405 3.82219e-05)
(0.0596524 0.00303804 3.91182e-05)
(0.0596039 0.0029702 3.98193e-05)
(0.0595652 0.00290085 4.03202e-05)
(0.0595373 0.00283034 4.06213e-05)
(0.059521 0.00275903 4.07135e-05)
(0.0595167 0.00268733 4.05822e-05)
(0.0595247 0.0026156 4.02362e-05)
(0.0595447 0.00254411 3.9741e-05)
(0.0595763 0.00247311 3.9167e-05)
(0.0596191 0.00240283 3.85154e-05)
(0.0596724 0.00233345 3.77391e-05)
(0.0597354 0.00226519 3.68148e-05)
(0.0598071 0.00219819 3.57989e-05)
(0.0598864 0.00213265 3.47608e-05)
(0.0599723 0.00206867 3.37102e-05)
(0.0600642 0.00200634 3.26026e-05)
(0.0601616 0.00194573 3.1417e-05)
(0.0602638 0.00188688 3.0241e-05)
(0.0603702 0.0018298 2.91899e-05)
(0.0604805 0.00177434 2.83127e-05)
(0.0605945 0.00172014 2.75788e-05)
(0.0607123 0.00166686 2.69501e-05)
(0.0608341 0.00161444 2.63796e-05)
(0.0609598 0.00156288 2.58157e-05)
(0.0610895 0.00151226 2.52124e-05)
(0.0612228 0.00146267 2.45325e-05)
(0.0613591 0.00141425 2.37455e-05)
(0.0614982 0.00136718 2.28721e-05)
(0.0616395 0.00132167 2.19569e-05)
(0.0617825 0.0012778 2.10391e-05)
(0.0619262 0.00123547 2.01445e-05)
(0.0620692 0.00119453 1.92978e-05)
(0.0622108 0.00115494 1.8515e-05)
(0.0623503 0.0011167 1.78079e-05)
(0.0624871 0.00107974 1.71764e-05)
(0.0626212 0.00104385 1.65928e-05)
(0.0627526 0.00100881 1.60265e-05)
(0.0628811 0.000974689 1.54582e-05)
(0.0630064 0.000941727 1.48761e-05)
(0.0631281 0.000909975 1.42991e-05)
(0.0632456 0.000879065 1.3817e-05)
(0.0633584 0.000848611 1.35095e-05)
(0.0634683 0.000818707 1.32414e-05)
(0.0635785 0.000789723 1.27538e-05)
(0.0636896 0.000761866 1.1989e-05)
(0.0637972 0.000735018 1.1291e-05)
(0.0638966 0.000708982 1.10015e-05)
(0.063989 0.00068331 1.10464e-05)
(0.0640774 0.000657433 1.11644e-05)
(0.0641632 0.00063106 1.12279e-05)
(0.064244 0.0006043 1.13029e-05)
(0.0643179 0.000577264 1.14441e-05)
(0.0643856 0.000549955 1.1585e-05)
(0.0644481 0.00052234 1.16316e-05)
(0.0645056 0.000494364 1.16328e-05)
(0.0645571 0.000465951 1.17581e-05)
(0.0646014 0.000436952 1.20839e-05)
(0.0646376 0.000407061 1.24654e-05)
(0.0646653 0.000376024 1.27524e-05)
(0.0646864 0.000344092 1.29677e-05)
(0.0647043 0.000311684 1.31996e-05)
(0.0647192 0.000278577 1.35018e-05)
(0.0647287 0.000243953 1.38948e-05)
(0.0647322 0.000207825 1.43451e-05)
(0.0647323 0.000171964 1.47109e-05)
(0.0647316 0.000137151 1.4875e-05)
(0.0647308 9.86261e-05 1.49008e-05)
(0.06473 4.99344e-05 1.49051e-05)
(0.0647291 -1.55981e-05 1.50087e-05)
(0.0028496 -2.99164e-07 7.12406e-07)
(0.00829419 -1.99788e-06 4.87883e-07)
(0.0134802 -3.15227e-06 -3.15227e-06)
(0.0184703 -1.1158e-06 -1.02967e-05)
(0.0233062 6.67154e-06 -2.05073e-05)
(0.0280147 2.26549e-05 -3.33944e-05)
(0.0326127 4.92849e-05 -4.89435e-05)
(0.037109 8.91294e-05 -6.73248e-05)
(0.0415064 0.000144873 -8.88049e-05)
(0.0458024 0.000219154 -0.000113335)
(0.0499902 0.00031431 -0.000140514)
(0.0540596 0.000432121 -0.000169565)
(0.0579978 0.000573558 -0.000199297)
(0.0617908 0.000738613 -0.000228436)
(0.0654244 0.000926399 -0.000255715)
(0.0688855 0.00113507 -0.000279938)
(0.0721628 0.00136209 -0.000300233)
(0.0752469 0.0016044 -0.000316008)
(0.0781317 0.00185853 -0.000326945)
(0.0808136 0.00212091 -0.00033294)
(0.083292 0.00238796 -0.00033423)
(0.0855684 0.00265623 -0.000331151)
(0.0876468 0.00292251 -0.000324116)
(0.0895329 0.00318388 -0.00031362)
(0.0912338 0.00343779 -0.000300256)
(0.0927577 0.00368201 -0.000284555)
(0.0941135 0.00391467 -0.000266968)
(0.0953105 0.0041342 -0.000247955)
(0.0963584 0.00433943 -0.000227983)
(0.0972672 0.00452941 -0.000207451)
(0.0980464 0.00470349 -0.000186631)
(0.0987058 0.00486123 -0.000165798)
(0.0992552 0.00500246 -0.000145233)
(0.099704 0.00512717 -0.000125183)
(0.100061 0.00523552 -0.000105737)
(0.100337 0.00532776 -8.69544e-05)
(0.100538 0.00540432 -6.89474e-05)
(0.100675 0.00546569 -5.18501e-05)
(0.100754 0.00551242 -3.5703e-05)
(0.100782 0.00554513 -2.04577e-05)
(0.100768 0.00556447 -6.10965e-06)
(0.100717 0.00557112 7.24309e-06)
(0.100635 0.00556582 1.95024e-05)
(0.100529 0.00554938 3.066e-05)
(0.100404 0.00552263 4.07409e-05)
(0.100266 0.00548644 4.97754e-05)
(0.100118 0.00544162 5.77992e-05)
(0.0999645 0.00538901 6.48613e-05)
(0.0998095 0.00532932 7.10491e-05)
(0.0996554 0.00526328 7.64599e-05)
(0.0995044 0.00519153 8.11899e-05)
(0.0993581 0.00511465 8.53353e-05)
(0.0992178 0.00503315 8.90025e-05)
(0.0990851 0.00494739 9.23162e-05)
(0.0989614 0.00485773 9.53922e-05)
(0.0988483 0.00476447 9.82032e-05)
(0.0987476 0.00466792 0.000100638)
(0.0986612 0.00456843 0.000102606)
(0.0985909 0.00446647 0.000104065)
(0.0985383 0.0043625 0.000104979)
(0.0985048 0.00425711 0.000105331)
(0.098491 0.00415089 0.000105113)
(0.0984974 0.00404441 0.000104359)
(0.0985236 0.00393809 0.000103206)
(0.0985691 0.0038323 0.000101798)
(0.098633 0.00372741 0.000100156)
(0.0987143 0.00362374 9.82086e-05)
(0.0988115 0.00352157 9.59299e-05)
(0.0989231 0.00342111 9.34358e-05)
(0.0990471 0.00332254 9.08658e-05)
(0.0991821 0.00322604 8.82378e-05)
(0.0993271 0.0031318 8.54593e-05)
(0.0994809 0.00303996 8.24911e-05)
(0.0996428 0.00295059 7.95355e-05)
(0.099812 0.00286368 7.68577e-05)
(0.099988 0.00277906 7.45786e-05)
(0.100171 0.0026963 7.26459e-05)
(0.10036 0.002615 7.09864e-05)
(0.100555 0.00253506 6.94736e-05)
(0.100757 0.00245646 6.796e-05)
(0.100966 0.00237928 6.63252e-05)
(0.101182 0.00230374 6.44937e-05)
(0.101402 0.0022301 6.24088e-05)
(0.101628 0.0021585 6.01402e-05)
(0.101857 0.0020891 5.78179e-05)
(0.102088 0.00202194 5.55385e-05)
(0.102321 0.00195689 5.33297e-05)
(0.102553 0.0018938 5.12132e-05)
(0.102783 0.00183259 4.92267e-05)
(0.103009 0.00177323 4.74174e-05)
(0.103231 0.00171563 4.57949e-05)
(0.103448 0.00165961 4.42835e-05)
(0.103661 0.001605 4.27991e-05)
(0.10387 0.00155181 4.13118e-05)
(0.104074 0.00150022 3.98241e-05)
(0.104271 0.00145024 3.83874e-05)
(0.104461 0.0014015 3.71606e-05)
(0.104644 0.00135361 3.628e-05)
(0.104823 0.00130663 3.54837e-05)
(0.105002 0.00126087 3.428e-05)
(0.105182 0.00121649 3.25686e-05)
(0.105357 0.00117329 3.1031e-05)
(0.10552 0.00113102 3.03438e-05)
(0.105671 0.00108911 3.03677e-05)
(0.105816 0.0010469 3.05968e-05)
(0.105955 0.00100404 3.07603e-05)
(0.106087 0.000960755 3.09294e-05)
(0.106208 0.000917224 3.11704e-05)
(0.106319 0.000873388 3.14058e-05)
(0.106421 0.000829115 3.15283e-05)
(0.106515 0.000784256 3.16468e-05)
(0.106599 0.000738652 3.20531e-05)
(0.10667 0.000692069 3.28683e-05)
(0.106729 0.000644117 3.38132e-05)
(0.106774 0.000594481 3.45974e-05)
(0.106808 0.000543462 3.52358e-05)
(0.106837 0.000491575 3.58602e-05)
(0.106861 0.000438606 3.65688e-05)
(0.106877 0.000383666 3.7427e-05)
(0.106884 0.000326964 3.83985e-05)
(0.106886 0.000271015 3.92405e-05)
(0.106885 0.000216712 3.97479e-05)
(0.106884 0.00015625 4.00192e-05)
(0.106882 7.91439e-05 4.02421e-05)
(0.10688 -2.54411e-05 4.06108e-05)
(0.00385621 -7.02706e-07 2.59447e-06)
(0.0113053 -5.05109e-06 4.02257e-06)
(0.0184703 -1.02967e-05 -1.1158e-06)
(0.0254027 -1.28214e-05 -1.28214e-05)
(0.0321411 -9.16627e-06 -3.04599e-05)
(0.0387122 4.07593e-06 -5.35955e-05)
(0.0451329 3.04302e-05 -8.22697e-05)
(0.051412 7.35858e-05 -0.00011676)
(0.0575504 0.00013728 -0.000157255)
(0.0635431 0.000224992 -0.00020339)
(0.0693791 0.000339592 -0.000254142)
(0.0750437 0.000483078 -0.000307863)
(0.080519 0.000656317 -0.00036237)
(0.0857857 0.000858952 -0.00041537)
(0.0908249 0.00108958 -0.000464646)
(0.0956192 0.00134574 -0.000508245)
(0.100154 0.00162422 -0.000544733)
(0.104418 0.0019213 -0.000573141)
(0.108403 0.0022329 -0.000593014)
(0.112106 0.00255482 -0.000604248)
(0.115526 0.00288295 -0.000607238)
(0.118667 0.00321331 -0.000602556)
(0.121535 0.00354221 -0.000590936)
(0.124137 0.00386625 -0.000573225)
(0.126484 0.00418244 -0.000550385)
(0.128588 0.00448814 -0.000523305)
(0.13046 0.00478106 -0.000492777)
(0.132113 0.00505927 -0.000459586)
(0.133561 0.00532123 -0.000424511)
(0.134817 0.00556565 -0.000388228)
(0.135895 0.00579161 -0.000351245)
(0.136807 0.00599836 -0.000314056)
(0.137567 0.00618555 -0.000277142)
(0.138188 0.00635291 -0.000240931)
(0.138683 0.00650049 -0.000205635)
(0.139063 0.00662842 -0.000171429)
(0.139341 0.00673707 -0.000138526)
(0.139529 0.00682691 -0.000107153)
(0.139636 0.00689851 -7.74054e-05)
(0.139674 0.00695255 -4.92479e-05)
(0.13965 0.00698975 -2.26987e-05)
(0.139575 0.00701086 2.10172e-06)
(0.139457 0.00701671 2.50122e-05)
(0.139304 0.00700819 4.59987e-05)
(0.139123 0.00698627 6.50682e-05)
(0.138923 0.00695193 8.22575e-05)
(0.138709 0.00690614 9.76344e-05)
(0.138487 0.00684989 0.000111287)
(0.138261 0.00678408 0.000123352)
(0.138036 0.00670961 0.000133983)
(0.137815 0.00662728 0.00014334)
(0.1376 0.00653781 0.00015159)
(0.137393 0.0064419 0.00015891)
(0.137196 0.00634004 0.000165492)
(0.137011 0.00623277 0.000171516)
(0.13684 0.00612054 0.000176964)
(0.136686 0.00600378 0.000181705)
(0.136551 0.00588297 0.000185615)
(0.136437 0.00575868 0.000188602)
(0.136348 0.00563154 0.000190575)
(0.136284 0.00550223 0.000191504)
(0.136247 0.00537148 0.000191393)
(0.136238 0.00524002 0.000190306)
(0.136256 0.0051084 0.000188457)
(0.1363 0.00497719 0.000186075)
(0.136369 0.00484683 0.000183221)
(0.136462 0.00471771 0.000179836)
(0.136577 0.00459015 0.000175918)
(0.136712 0.00446439 0.000171639)
(0.136863 0.00434065 0.000167197)
(0.13703 0.00421913 0.000162615)
(0.13721 0.00410008 0.000157752)
(0.137403 0.00398371 0.000152551)
(0.137607 0.00387012 0.000147348)
(0.137821 0.00375934 0.000142577)
(0.138047 0.00365124 0.000138445)
(0.138282 0.00354539 0.000134887)
(0.138526 0.0034414 0.000131798)
(0.13878 0.00333921 0.000128952)
(0.139043 0.00323881 0.000126077)
(0.139316 0.00314032 0.000122965)
(0.139598 0.00304399 0.000119516)
(0.139888 0.00295006 0.000115663)
(0.140185 0.00285867 0.000111545)
(0.140487 0.00276989 0.000107402)
(0.140793 0.00268371 0.000103399)
(0.141101 0.00259991 9.95516e-05)
(0.141408 0.00251827 9.58635e-05)
(0.141712 0.00243871 9.23755e-05)
(0.142012 0.00236124 8.91503e-05)
(0.142306 0.00228583 8.61975e-05)
(0.142595 0.00221237 8.3406e-05)
(0.142878 0.00214077 8.06548e-05)
(0.143155 0.00207102 7.79203e-05)
(0.143424 0.00200319 7.52384e-05)
(0.143685 0.00193719 7.26964e-05)
(0.143937 0.00187269 7.04938e-05)
(0.144181 0.0018093 6.87949e-05)
(0.144419 0.00174708 6.72272e-05)
(0.144658 0.00168631 6.51093e-05)
(0.144897 0.00162706 6.23254e-05)
(0.145129 0.001569 5.98876e-05)
(0.145348 0.0015117 5.87939e-05)
(0.145553 0.00145459 5.88122e-05)
(0.145748 0.00139704 5.91559e-05)
(0.145935 0.00133881 5.93911e-05)
(0.146111 0.0012802 5.95959e-05)
(0.146273 0.00122147 5.98602e-05)
(0.146423 0.00116245 6.0146e-05)
(0.146561 0.00110283 6.03922e-05)
(0.146688 0.0010424 6.07571e-05)
(0.146799 0.00098096 6.15856e-05)
(0.146894 0.000918251 6.30109e-05)
(0.146972 0.000853838 6.46716e-05)
(0.147033 0.00078736 6.61832e-05)
(0.147081 0.000719116 6.74815e-05)
(0.14712 0.000649631 6.86291e-05)
(0.147151 0.000578782 6.97477e-05)
(0.147173 0.000505844 7.10136e-05)
(0.147185 0.000431289 7.24659e-05)
(0.147189 0.000358076 7.38551e-05)
(0.14719 0.000286967 7.4955e-05)
(0.147188 0.000207278 7.58224e-05)
(0.147185 0.000104797 7.65964e-05)
(0.147181 -3.51647e-05 7.74212e-05)
(0.00482696 -1.23311e-06 6.33535e-06)
(0.0142149 -9.2272e-06 1.19485e-05)
(0.0233062 -2.05073e-05 6.67154e-06)
(0.0321411 -3.04599e-05 -9.16627e-06)
(0.0407506 -3.47341e-05 -3.47341e-05)
(0.0491568 -2.89871e-05 -6.96195e-05)
(0.0573729 -8.64633e-06 -0.000114014)
(0.0654041 3.10177e-05 -0.000168224)
(0.0732477 9.46842e-05 -0.00023221)
(0.0808944 0.000186518 -0.000304987)
(0.0883286 0.000309772 -0.000384585)
(0.0955307 0.000466528 -0.000468197)
(0.102478 0.000657454 -0.000552363)
(0.109147 0.000881814 -0.00063362)
(0.115515 0.00113775 -0.000708735)
(0.121563 0.0014223 -0.000774957)
(0.127274 0.00173183 -0.000830322)
(0.132635 0.00206224 -0.000873553)
(0.13764 0.00240913 -0.000904098)
(0.142285 0.00276806 -0.00092189)
(0.146573 0.00313472 -0.000927549)
(0.150508 0.00350494 -0.000921925)
(0.1541 0.00387488 -0.000906064)
(0.157359 0.00424097 -0.000881166)
(0.160299 0.00460002 -0.000848594)
(0.162935 0.00494916 -0.000809604)
(0.165281 0.0052859 -0.00076531)
(0.167355 0.00560802 -0.00071683)
(0.169172 0.00591373 -0.000665282)
(0.170749 0.00620144 -0.000611641)
(0.172103 0.00646996 -0.000556647)
(0.17325 0.00671826 -0.000501025)
(0.174206 0.00694569 -0.000445492)
(0.174988 0.0071517 -0.000390702)
(0.175611 0.00733614 -0.000337023)
(0.17609 0.00749894 -0.000284768)
(0.176441 0.0076403 -0.000234292)
(0.176676 0.00776055 -0.000185961)
(0.17681 0.00786018 -0.000139949)
(0.176854 0.00793981 -9.62479e-05)
(0.17682 0.00800011 -5.49089e-05)
(0.17672 0.00804182 -1.61269e-05)
(0.176563 0.00806572 1.99025e-05)
(0.176361 0.00807271 5.31137e-05)
(0.176122 0.00806377 8.34909e-05)
(0.175857 0.00803989 0.00011106)
(0.175572 0.00800212 0.000135893)
(0.175275 0.0079515 0.000158092)
(0.174973 0.00788907 0.000177856)
(0.17467 0.00781585 0.000195405)
(0.174371 0.00773273 0.000210963)
(0.174078 0.00764056 0.000224761)
(0.173794 0.00754012 0.000237043)
(0.173523 0.00743208 0.00024808)
(0.173265 0.00731707 0.000258123)
(0.173025 0.00719568 0.000267168)
(0.172805 0.00706847 0.00027506)
(0.172608 0.00693603 0.000281647)
(0.172437 0.00679907 0.0002868)
(0.172295 0.00665832 0.000290393)
(0.172184 0.00651457 0.000292376)
(0.172105 0.0063686 0.000292745)
(0.172061 0.00622123 0.000291585)
(0.17205 0.00607317 0.000289198)
(0.172072 0.00592516 0.000285911)
(0.172124 0.00577771 0.000281851)
(0.172207 0.0056312 0.000277008)
(0.172316 0.00548597 0.000271423)
(0.17245 0.00534229 0.000265316)
(0.172605 0.00520044 0.00025893)
(0.172779 0.00506066 0.000252285)
(0.172969 0.0049232 0.000245199)
(0.173176 0.00478829 0.000237607)
(0.173397 0.00465609 0.000229966)
(0.173633 0.00452673 0.000222872)
(0.173884 0.00440014 0.000216617)
(0.174149 0.004276 0.000211125)
(0.174426 0.00415403 0.000206267)
(0.174715 0.00403422 0.000201723)
(0.175017 0.00391666 0.000197103)
(0.175332 0.00380149 0.000192126)
(0.175658 0.00368889 0.000186686)
(0.175995 0.00357902 0.000180725)
(0.176341 0.00347195 0.000174463)
(0.176695 0.00336773 0.000168254)
(0.177056 0.00326625 0.000162334)
(0.177419 0.00316716 0.000156707)
(0.177781 0.00307012 0.000151353)
(0.17814 0.00297509 0.000146271)
(0.178495 0.00288216 0.000141472)
(0.178844 0.00279143 0.000136934)
(0.179187 0.0027029 0.000132564)
(0.179523 0.00261656 0.000128265)
(0.179851 0.00253236 0.000124042)
(0.18017 0.00245025 0.00011997)
(0.180478 0.00237008 0.000116162)
(0.180776 0.00229155 0.000112821)
(0.181066 0.00221435 0.000110105)
(0.18135 0.00213855 0.000107559)
(0.181634 0.00206436 0.00010438)
(0.181919 0.00199178 0.000100475)
(0.182197 0.00192029 9.71654e-05)
(0.182461 0.00184928 9.57401e-05)
(0.18271 0.00177825 9.58202e-05)
(0.182947 0.00170671 9.62753e-05)
(0.183173 0.00163452 9.64942e-05)
(0.183384 0.00156204 9.66194e-05)
(0.183581 0.00148957 9.68224e-05)
(0.183762 0.0014168 9.71388e-05)
(0.18393 0.0013433 9.75764e-05)
(0.184083 0.00126873 9.83134e-05)
(0.184218 0.00119291 9.96719e-05)
(0.184333 0.00111558 0.000101765)
(0.184428 0.00103634 0.000104218)
(0.184503 0.000954885 0.000106617)
(0.184562 0.000871456 0.000108752)
(0.18461 0.000786493 0.000110503)
(0.184648 0.00069995 0.000111981)
(0.184676 0.000611328 0.000113511)
(0.184692 0.000521362 0.000115292)
(0.1847 0.000433342 0.000117232)
(0.184703 0.000347824 0.000119209)
(0.184702 0.000251465 0.000121111)
(0.184698 0.00012663 0.000122826)
(0.184692 -4.4912e-05 0.000124238)
(0.00576985 -1.84539e-06 1.23779e-05)
(0.0170436 -1.42839e-05 2.57049e-05)
(0.0280147 -3.33944e-05 2.26549e-05)
(0.0387122 -5.35955e-05 4.07593e-06)
(0.0491568 -6.96195e-05 -2.89871e-05)
(0.0593621 -7.61817e-05 -7.61817e-05)
(0.0693343 -6.77152e-05 -0.000137902)
(0.0790722 -3.85194e-05 -0.000214383)
(0.0885673 1.69222e-05 -0.000305178)
(0.0978046 0.000103344 -0.00040836)
(0.106763 0.000224273 -0.000520701)
(0.115419 0.000381797 -0.000637977)
(0.123746 0.000576375 -0.000755245)
(0.131717 0.000806974 -0.000867793)
(0.139308 0.00107141 -0.000971369)
(0.146498 0.00136644 -0.00106244)
(0.153271 0.00168823 -0.00113858)
(0.159616 0.00203253 -0.00119832)
(0.165529 0.00239494 -0.00124105)
(0.171008 0.00277104 -0.0012668)
(0.176059 0.00315658 -0.00127645)
(0.180691 0.00354747 -0.00127113)
(0.184915 0.0039399 -0.00125218)
(0.188747 0.00433033 -0.00122114)
(0.192203 0.00471555 -0.00117976)
(0.195301 0.00509264 -0.00112963)
(0.19806 0.00545898 -0.00107215)
(0.200499 0.00581221 -0.00100873)
(0.202637 0.00615031 -0.000940839)
(0.204496 0.00647147 -0.000869737)
(0.206092 0.00677423 -0.000796375)
(0.207446 0.00705729 -0.000721702)
(0.208576 0.00731969 -0.000646695)
(0.209501 0.0075606 -0.000572254)
(0.210238 0.00777957 -0.000498919)
(0.210806 0.00797628 -0.000427165)
(0.211222 0.00815069 -0.000357516)
(0.211501 0.00830291 -0.000290518)
(0.211658 0.00843322 -0.000226453)
(0.211709 0.00854208 -0.000165354)
(0.211665 0.00863004 -0.000107323)
(0.211541 0.0086977 -5.26264e-05)
(0.211347 0.00874577 -1.53175e-06)
(0.211097 0.00877505 4.58583e-05)
(0.210801 0.00878642 8.9502e-05)
(0.21047 0.00878084 0.000129395)
(0.210114 0.00875932 0.000165572)
(0.209741 0.00872292 0.000198125)
(0.209359 0.00867268 0.000227309)
(0.208975 0.00860968 0.000253417)
(0.208592 0.00853489 0.000276734)
(0.208216 0.00844919 0.000297539)
(0.20785 0.00835347 0.000316139)
(0.207496 0.00824845 0.000332885)
(0.207157 0.00813489 0.000348111)
(0.206838 0.00801346 0.000361816)
(0.206541 0.00788486 0.000373803)
(0.20627 0.00774981 0.000383892)
(0.206028 0.00760909 0.000391948)
(0.205819 0.00746356 0.000397846)
(0.205644 0.00731404 0.000401511)
(0.205507 0.00716139 0.000402905)
(0.205409 0.00700648 0.000402117)
(0.205349 0.00685014 0.000399553)
(0.205326 0.00669321 0.000395659)
(0.20534 0.00653625 0.00039065)
(0.205387 0.00637962 0.000384582)
(0.205467 0.00622368 0.00037756)
(0.205575 0.00606874 0.000369834)
(0.205708 0.00591511 0.000361676)
(0.205863 0.0057631 0.000353106)
(0.206038 0.00561294 0.000343918)
(0.206232 0.0054649 0.000334043)
(0.206445 0.00531918 0.000324037)
(0.206677 0.00517599 0.000314618)
(0.206928 0.00503539 0.00030614)
(0.207196 0.00489726 0.000298522)
(0.207481 0.0047615 0.000291613)
(0.207781 0.00462822 0.000285035)
(0.208097 0.00449759 0.000278322)
(0.208428 0.00436976 0.000271153)
(0.208773 0.00424478 0.00026344)
(0.209132 0.00412273 0.000255155)
(0.209503 0.00400359 0.000246599)
(0.209886 0.0038873 0.000238232)
(0.210277 0.00377366 0.000230357)
(0.210673 0.00366224 0.000222967)
(0.211068 0.00355257 0.00021601)
(0.211461 0.00344466 0.00020939)
(0.21185 0.00333871 0.000202981)
(0.212235 0.00323492 0.000196696)
(0.212613 0.0031334 0.000190533)
(0.212983 0.00303423 0.000184505)
(0.213343 0.00293734 0.000178667)
(0.213692 0.00284253 0.000173102)
(0.21403 0.00274962 0.000167922)
(0.214359 0.00265845 0.000163307)
(0.214678 0.00256888 0.000159384)
(0.214993 0.00248094 0.000155668)
(0.215307 0.00239473 0.000151318)
(0.215622 0.00231011 0.000146301)
(0.215932 0.00222646 0.000142188)
(0.21623 0.00214311 0.000140492)
(0.216513 0.00205963 0.00014065)
(0.216782 0.00197568 0.000141173)
(0.217036 0.00189119 0.000141278)
(0.217274 0.00180649 0.000141221)
(0.217495 0.00172184 0.000141299)
(0.2177 0.00163684 0.000141643)
(0.21789 0.00155095 0.000142344)
(0.218064 0.00146381 0.000143567)
(0.218217 0.00137522 0.000145541)
(0.218347 0.00128494 0.000148326)
(0.218455 0.00119264 0.000151591)
(0.218543 0.00109806 0.000154943)
(0.218614 0.00100145 0.000157995)
(0.21867 0.000903226 0.000160375)
(0.218714 0.000803337 0.000162157)
(0.218746 0.000701273 0.000163829)
(0.218766 0.000597922 0.000165802)
(0.218779 0.000497059 0.000168286)
(0.218784 0.000399229 0.000171366)
(0.218785 0.000288658 0.000174654)
(0.218781 0.000144526 0.000177618)
(0.218773 -5.4685e-05 0.000179707)
(0.0066894 -2.54009e-06 2.11056e-05)
(0.0198038 -2.021e-05 4.66577e-05)
(0.0326127 -4.89435e-05 4.92849e-05)
(0.0451329 -8.22697e-05 3.04302e-05)
(0.0573729 -0.000114014 -8.64633e-06)
(0.0693343 -0.000137902 -6.77152e-05)
(0.0810131 -0.000147354 -0.000147354)
(0.0923991 -0.000135715 -0.000247612)
(0.103476 -9.67239e-05 -0.000367384)
(0.114223 -2.51494e-05 -0.000503516)
(0.124614 8.27563e-05 -0.000651245)
(0.13462 0.000229086 -0.000804705)
(0.144212 0.000414165 -0.000957351)
(0.153363 0.000636771 -0.00110319)
(0.162049 0.000894557 -0.00123696)
(0.170249 0.0011842 -0.00135446)
(0.177951 0.00150187 -0.00145287)
(0.185147 0.00184345 -0.00153061)
(0.191835 0.0022047 -0.00158709)
(0.19802 0.0025814 -0.00162245)
(0.203712 0.00296955 -0.00163783)
(0.208923 0.00336528 -0.00163467)
(0.21367 0.00376496 -0.00161455)
(0.217973 0.0041652 -0.00157929)
(0.221851 0.00456287 -0.00153099)
(0.225326 0.00495504 -0.00147154)
(0.228421 0.00533908 -0.00140256)
(0.231158 0.00571253 -0.00132575)
(0.233559 0.00607324 -0.00124285)
(0.235647 0.0064192 -0.0011554)
(0.237442 0.00674872 -0.00106453)
(0.238966 0.00706025 -0.000971415)
(0.240239 0.00735255 -0.000877272)
(0.241284 0.00762447 -0.000783251)
(0.242118 0.00787529 -0.000690084)
(0.242762 0.00810438 -0.000598431)
(0.243233 0.00831142 -0.000509)
(0.24355 0.00849623 -0.000422518)
(0.24373 0.00865883 -0.0003394)
(0.243786 0.00879945 -0.000259764)
(0.243735 0.00891839 -0.000183797)
(0.24359 0.00901612 -0.000111845)
(0.243365 0.00909319 -4.42507e-05)
(0.243072 0.00915025 1.88286e-05)
(0.242725 0.00918802 7.73059e-05)
(0.242334 0.00920735 0.000131128)
(0.241912 0.00920916 0.000180276)
(0.241467 0.00919442 0.000224811)
(0.241008 0.00916412 0.000265026)
(0.240544 0.00911929 0.000301269)
(0.24008 0.00906087 0.000333868)
(0.239621 0.00898983 0.000363142)
(0.239171 0.00890705 0.000389448)
(0.238733 0.00881335 0.000413217)
(0.238311 0.00870951 0.000434857)
(0.237909 0.00859631 0.00045436)
(0.23753 0.00847456 0.000471477)
(0.237179 0.00834508 0.000485996)
(0.236858 0.00820873 0.000497808)
(0.236572 0.00806642 0.000506813)
(0.236322 0.00791904 0.000512918)
(0.236113 0.00776749 0.000516032)
(0.235946 0.00761267 0.000516243)
(0.235821 0.00745549 0.000514072)
(0.235738 0.00729682 0.000510096)
(0.235693 0.00713724 0.000504637)
(0.235687 0.00697711 0.000497834)
(0.235716 0.00681677 0.000489859)
(0.235777 0.00665659 0.000480972)
(0.235866 0.00649692 0.000471444)
(0.235979 0.00633811 0.000461301)
(0.236116 0.00618045 0.000450344)
(0.236275 0.00602425 0.000438524)
(0.236457 0.00586976 0.00042645)
(0.236662 0.00571722 0.000414902)
(0.23689 0.00556682 0.000404265)
(0.237139 0.00541872 0.000394447)
(0.237409 0.00527309 0.000385289)
(0.237697 0.00513013 0.000376401)
(0.238004 0.00499008 0.000367311)
(0.238327 0.00485308 0.000357709)
(0.238668 0.0047191 0.000347545)
(0.239025 0.0045881 0.000336843)
(0.239398 0.00445994 0.000325975)
(0.239786 0.00433445 0.00031549)
(0.240186 0.00421134 0.000305745)
(0.240592 0.00409014 0.000296716)