/*--------------------------------*- C++ -*----------------------------------*\
| =========                 |                                                 |
| \\      /  F ield         | OpenFOAM: The Open Source CFD Toolbox           |
|  \\    /   O peration     | Version:  4.x                                   |
|   \\  /    A nd           | Web:      www.OpenFOAM.org                      |
|    \\/     M anipulation  |                                                 |
\*---------------------------------------------------------------------------*/
FoamFile
{
    version     2.0;
    format      ascii;
    class       volVectorField;
    location    "99.27";
    object      U;
}
// * * * * * * * * * * * * * * * * * * * * * * * * * * * * * * * * * * * * * //

dimensions      [0 1 -1 0 0 0 0];

internalField   nonuniform List<vector> 
15625
(
(0.00129308 -8.31975e-16 -8.3208e-16)
(0.00328783 -1.30477e-15 -4.26665e-16)
(0.00512526 -6.20842e-16 -1.33223e-16)
(0.00686361 -3.23434e-16 -5.70037e-17)
(0.00851327 -2.07834e-16 -3.01989e-17)
(0.0100695 -1.47093e-16 -1.56103e-17)
(0.0115271 -1.10088e-16 -8.20169e-18)
(0.0128851 -8.69679e-17 -4.83886e-18)
(0.0141472 -7.17358e-17 -3.1148e-18)
(0.0153198 -6.09511e-17 -2.19047e-18)
(0.016411 -5.27926e-17 -1.61958e-18)
(0.0174287 -4.64129e-17 -1.27901e-18)
(0.0183806 -4.12299e-17 -1.04046e-18)
(0.0192738 -3.69496e-17 -8.62442e-19)
(0.0201145 -3.34888e-17 -7.02888e-19)
(0.020908 -3.06102e-17 -5.9258e-19)
(0.0216592 -2.81649e-17 -4.044e-19)
(0.022372 -2.61679e-17 -3.58314e-19)
(0.0230501 -2.43597e-17 -2.66136e-19)
(0.0236966 -2.2789e-17 -2.87187e-19)
(0.024314 -2.15625e-17 -2.44347e-19)
(0.0249049 -2.05325e-17 -2.55523e-19)
(0.0254713 -1.96726e-17 -2.04552e-19)
(0.0260151 -1.88473e-17 -2.73534e-19)
(0.0265379 -1.7947e-17 -2.01766e-19)
(0.0270412 -1.70671e-17 -2.32486e-19)
(0.0275262 -1.62577e-17 -1.00663e-19)
(0.0279943 -1.55663e-17 -5.11138e-20)
(0.0284464 -1.49095e-17 -2.57376e-20)
(0.0288835 -1.44491e-17 -4.12653e-20)
(0.0293065 -1.41178e-17 -2.27538e-19)
(0.0297163 -1.37335e-17 -8.64503e-20)
(0.0301134 -1.32838e-17 -9.93986e-20)
(0.0304987 -1.27946e-17 -1.28847e-19)
(0.0308728 -1.22336e-17 -1.8863e-19)
(0.0312361 -1.16209e-17 -2.88531e-19)
(0.0315893 -1.11807e-17 -3.39126e-19)
(0.0319328 -1.07402e-17 -3.19355e-19)
(0.032267 -1.03513e-17 -1.44342e-19)
(0.0325924 -1.02424e-17 -4.51202e-20)
(0.0329094 -1.01649e-17 -1.21034e-19)
(0.0332184 -9.81341e-18 -1.55914e-19)
(0.0335195 -9.47306e-18 -9.3195e-20)
(0.0338133 -9.32506e-18 4.04546e-20)
(0.0340999 -9.12181e-18 1.52204e-19)
(0.0343797 -8.83547e-18 1.38432e-19)
(0.0346528 -8.6853e-18 -8.21035e-21)
(0.0349196 -8.78866e-18 -1.32346e-19)
(0.0351803 -8.9477e-18 -1.39199e-20)
(0.035435 -8.87059e-18 8.11225e-21)
(0.0356841 -8.50935e-18 -4.49144e-20)
(0.0359275 -8.45352e-18 -2.23915e-20)
(0.0361657 -8.71494e-18 -7.11094e-20)
(0.0363986 -8.83376e-18 -1.8136e-19)
(0.0366265 -8.89121e-18 1.03013e-19)
(0.0368495 -8.74548e-18 -3.10762e-19)
(0.0370677 -8.49053e-18 -1.52616e-19)
(0.0372813 -8.29354e-18 -2.71487e-19)
(0.0374905 -8.17237e-18 -3.3237e-19)
(0.0376952 -8.135e-18 -4.52396e-19)
(0.0378957 -8.0997e-18 -2.06701e-19)
(0.038092 -8.04324e-18 -2.06652e-19)
(0.0382843 -7.74216e-18 -4.19375e-19)
(0.0384726 -7.3859e-18 -1.05994e-19)
(0.038657 -7.36015e-18 4.74105e-20)
(0.0388377 -7.37652e-18 1.58526e-19)
(0.0390146 -7.24955e-18 2.43192e-19)
(0.0391879 -6.87944e-18 -1.28201e-19)
(0.0393576 -6.45675e-18 -1.06332e-19)
(0.0395238 -6.02729e-18 -1.4087e-19)
(0.0396866 -5.71827e-18 -9.42959e-20)
(0.0398459 -5.72668e-18 -5.95077e-20)
(0.040002 -5.61018e-18 -4.86693e-20)
(0.0401548 -5.66342e-18 3.36968e-20)
(0.0403044 -5.96378e-18 3.35421e-20)
(0.0404508 -5.89937e-18 1.58197e-19)
(0.0405941 -5.56031e-18 6.25424e-20)
(0.0407342 -5.00242e-18 -1.19027e-20)
(0.0408714 -4.63333e-18 1.31742e-19)
(0.0410055 -4.86972e-18 9.35274e-20)
(0.0411366 -4.88857e-18 -1.5721e-19)
(0.0412648 -4.6181e-18 -1.67562e-19)
(0.0413901 -4.15884e-18 -3.24534e-19)
(0.0415125 -3.60612e-18 -1.06446e-19)
(0.041632 -3.24205e-18 -1.57914e-19)
(0.0417486 -3.06571e-18 -2.47524e-19)
(0.0418625 -2.69471e-18 -1.45688e-19)
(0.0419735 -1.99764e-18 -3.00814e-19)
(0.0420817 -1.46502e-18 -1.83684e-19)
(0.0421872 -1.22108e-18 -8.79382e-20)
(0.0422899 -1.33915e-18 -4.91402e-20)
(0.0423898 -1.39655e-18 -2.85517e-19)
(0.042487 -1.12307e-18 -2.93959e-19)
(0.0425814 -1.13385e-18 -2.19712e-19)
(0.0426731 -1.40851e-18 -3.59045e-19)
(0.0427621 -5.92248e-19 1.45827e-20)
(0.0428483 5.45247e-19 8.9358e-20)
(0.0429319 7.08082e-19 1.78973e-19)
(0.0430126 5.37756e-19 1.44631e-19)
(0.0430907 6.19605e-19 2.34299e-19)
(0.043166 5.70965e-19 1.48237e-19)
(0.0432386 7.14056e-19 -2.42023e-19)
(0.0433084 1.19027e-18 -3.64903e-20)
(0.0433754 1.02351e-18 7.65856e-20)
(0.0434397 6.88832e-19 1.00121e-19)
(0.0435012 6.88787e-19 1.1256e-19)
(0.0435599 3.27766e-19 6.33699e-19)
(0.0436157 -1.31147e-19 8.48992e-20)
(0.0436687 -3.63108e-19 3.23265e-20)
(0.0437189 -5.23564e-19 -1.46153e-19)
(0.0437662 -6.88683e-19 -1.79537e-19)
(0.0438105 -5.362e-19 -2.45599e-19)
(0.043852 1.06331e-19 -2.57087e-19)
(0.0438904 -1.38931e-20 1.38106e-19)
(0.0439259 -4.72091e-19 -1.33011e-19)
(0.0439584 -6.93601e-19 -6.35027e-20)
(0.0439878 -5.64147e-19 -8.60233e-20)
(0.0440141 2.2019e-19 1.57787e-19)
(0.0440372 8.45219e-19 -2.59533e-20)
(0.0440573 7.83363e-19 2.97817e-19)
(0.044074 6.8734e-19 -3.67455e-20)
(0.0440876 6.1387e-19 1.71959e-19)
(0.0440978 2.14798e-19 1.3387e-19)
(0.0441047 4.30693e-19 6.32752e-20)
(0.0441081 4.04627e-19 -3.6015e-20)
(0.00328783 -4.26274e-16 -1.30489e-15)
(0.00868766 -1.00422e-15 -1.0034e-15)
(0.0137255 -7.56529e-16 -4.9922e-16)
(0.0184578 -5.52579e-16 -2.66914e-16)
(0.0228857 -4.2182e-16 -1.50533e-16)
(0.0269986 -3.32488e-16 -8.7883e-17)
(0.0307964 -2.69518e-16 -5.39327e-17)
(0.0342923 -2.24982e-16 -3.51673e-17)
(0.037509 -1.9295e-16 -2.41878e-17)
(0.0404732 -1.68861e-16 -1.77195e-17)
(0.0432124 -1.49827e-16 -1.35618e-17)
(0.0457523 -1.34696e-16 -1.0667e-17)
(0.0481161 -1.22389e-16 -8.65645e-18)
(0.050324 -1.12101e-16 -7.17223e-18)
(0.0523936 -1.03509e-16 -6.05899e-18)
(0.0543398 -9.63516e-17 -5.03746e-18)
(0.0561757 -9.03502e-17 -4.17787e-18)
(0.0579123 -8.52063e-17 -3.64105e-18)
(0.0595592 -8.04583e-17 -3.37592e-18)
(0.0611246 -7.62153e-17 -2.74686e-18)
(0.0626158 -7.26905e-17 -2.28615e-18)
(0.0640391 -6.95859e-17 -2.01858e-18)
(0.0654 -6.70188e-17 -1.8565e-18)
(0.0667033 -6.46504e-17 -1.50153e-18)
(0.0679534 -6.21755e-17 -1.63758e-18)
(0.0691542 -5.9672e-17 -1.76693e-18)
(0.0703091 -5.73999e-17 -1.14168e-18)
(0.0714211 -5.54834e-17 -1.17556e-18)
(0.0724931 -5.36398e-17 -9.22814e-19)
(0.0735276 -5.20832e-17 -8.62027e-19)
(0.0745268 -5.08152e-17 -6.69229e-19)
(0.0754929 -4.96703e-17 -5.8808e-19)
(0.0764276 -4.85058e-17 -8.26105e-19)
(0.0773329 -4.73547e-17 -7.75045e-19)
(0.0782102 -4.64003e-17 -9.44813e-19)
(0.079061 -4.52184e-17 -9.34617e-19)
(0.0798867 -4.39172e-17 -7.48648e-19)
(0.0806885 -4.25031e-17 -6.60252e-19)
(0.0814675 -4.13889e-17 -3.80693e-19)
(0.0822248 -4.15346e-17 -1.12452e-19)
(0.0829615 -4.1881e-17 -5.6731e-19)
(0.0836783 -4.16075e-17 -2.61872e-19)
(0.0843762 -4.12173e-17 -6.1592e-19)
(0.085056 -4.09443e-17 -4.86551e-19)
(0.0857183 -4.05558e-17 -5.68554e-19)
(0.086364 -3.99934e-17 -8.26883e-19)
(0.0869937 -3.99255e-17 -2.99098e-19)
(0.0876078 -4.00631e-17 -5.04358e-19)
(0.0882072 -3.99756e-17 -4.65668e-19)
(0.0887922 -3.9652e-17 -5.92275e-19)
(0.0893633 -3.90097e-17 -4.04086e-19)
(0.0899212 -3.8775e-17 -5.29257e-19)
(0.0904661 -3.88113e-17 -7.98758e-19)
(0.0909985 -3.81032e-17 -7.27794e-19)
(0.0915189 -3.72436e-17 -5.55047e-19)
(0.0920275 -3.63089e-17 -6.69615e-19)
(0.0925247 -3.52578e-17 -3.8821e-19)
(0.093011 -3.432e-17 -6.41734e-19)
(0.0934865 -3.36085e-17 -6.42475e-19)
(0.0939516 -3.30972e-17 -7.86221e-19)
(0.0944066 -3.20119e-17 -4.55815e-19)
(0.0948517 -3.10194e-17 -7.00138e-19)
(0.0952872 -2.98791e-17 -7.08972e-19)
(0.0957133 -2.86272e-17 -4.33518e-19)
(0.0961302 -2.83586e-17 -7.01662e-19)
(0.0965382 -2.77284e-17 -1.38853e-18)
(0.0969375 -2.61892e-17 -7.73139e-19)
(0.0973282 -2.42447e-17 -5.82025e-19)
(0.0977105 -2.23192e-17 -7.14821e-19)
(0.0980847 -2.07206e-17 -8.11557e-19)
(0.0984508 -1.9719e-17 -1.87599e-19)
(0.098809 -2.00459e-17 3.24851e-19)
(0.0991595 -1.99555e-17 -3.8217e-19)
(0.0995023 -1.9002e-17 -3.22252e-19)
(0.0998377 -1.87095e-17 -6.37867e-20)
(0.100166 -1.87109e-17 -5.20817e-19)
(0.100487 -1.83569e-17 -4.56504e-19)
(0.1008 -1.76346e-17 -3.41348e-19)
(0.101107 -1.70714e-17 7.40087e-20)
(0.101406 -1.72148e-17 -4.4739e-19)
(0.101699 -1.7022e-17 -2.44725e-19)
(0.101985 -1.62236e-17 -2.43137e-19)
(0.102265 -1.50332e-17 -8.17799e-19)
(0.102537 -1.36497e-17 -2.41175e-19)
(0.102804 -1.30102e-17 -2.26831e-19)
(0.103063 -1.27221e-17 -4.20584e-19)
(0.103317 -1.24087e-17 -9.26885e-19)
(0.103563 -1.15241e-17 -8.23845e-19)
(0.103804 -9.77422e-18 -6.63442e-19)
(0.104038 -9.05865e-18 5.18672e-21)
(0.104266 -1.00532e-17 2.86495e-19)
(0.104488 -1.10225e-17 -9.79275e-20)
(0.104703 -1.10364e-17 2.515e-19)
(0.104913 -1.16146e-17 2.8673e-19)
(0.105116 -1.22272e-17 4.02908e-19)
(0.105313 -1.11723e-17 -2.36616e-19)
(0.105504 -9.60084e-18 -1.91876e-19)
(0.105689 -8.87141e-18 -2.55724e-19)
(0.105867 -9.0639e-18 4.42939e-19)
(0.10604 -8.52026e-18 3.70525e-20)
(0.106206 -8.18322e-18 3.43963e-19)
(0.106367 -6.85878e-18 -5.93031e-19)
(0.106521 -5.2918e-18 -2.49408e-19)
(0.106669 -5.37742e-18 -2.02998e-19)
(0.106811 -4.95902e-18 -7.54488e-19)
(0.106946 -4.55208e-18 2.69165e-19)
(0.107076 -5.05602e-18 9.98034e-19)
(0.107199 -5.88166e-18 -8.97787e-20)
(0.107316 -5.85682e-18 -4.73048e-19)
(0.107426 -5.18095e-18 -2.31321e-19)
(0.10753 -5.26924e-18 3.42412e-19)
(0.107628 -4.8986e-18 1.39877e-19)
(0.107719 -3.21735e-18 7.39329e-20)
(0.107804 -3.92076e-18 6.37628e-19)
(0.107882 -5.30515e-18 -1.71431e-19)
(0.107954 -5.38842e-18 -6.73332e-19)
(0.108018 -5.21501e-18 -5.92015e-19)
(0.108076 -3.60946e-18 -5.3535e-19)
(0.108127 -1.43508e-18 -1.06782e-18)
(0.108171 -4.68298e-19 -7.04433e-20)
(0.108208 -2.71703e-19 -3.69884e-19)
(0.108238 8.46934e-20 1.17998e-19)
(0.10826 -3.61908e-19 2.20131e-19)
(0.108276 6.49963e-19 -4.5753e-19)
(0.108283 7.75126e-19 1.50348e-19)
(0.00512526 -1.32779e-16 -6.21004e-16)
(0.0137255 -5.00089e-16 -7.5487e-16)
(0.0218605 -5.38305e-16 -5.36705e-16)
(0.0294972 -4.92624e-16 -3.60086e-16)
(0.0365902 -4.27711e-16 -2.36766e-16)
(0.0431109 -3.6463e-16 -1.56309e-16)
(0.0490703 -3.10587e-16 -1.06134e-16)
(0.0545088 -2.66787e-16 -7.487e-17)
(0.0594795 -2.32174e-16 -5.49063e-17)
(0.0640371 -2.04352e-16 -4.15006e-17)
(0.0682328 -1.81568e-16 -3.26436e-17)
(0.072112 -1.62802e-16 -2.66053e-17)
(0.0757135 -1.47007e-16 -2.179e-17)
(0.0790709 -1.33718e-16 -1.83874e-17)
(0.0822123 -1.2252e-16 -1.55486e-17)
(0.0851618 -1.12922e-16 -1.30903e-17)
(0.0879399 -1.04757e-16 -1.10141e-17)
(0.090564 -9.7855e-17 -9.3812e-18)
(0.0930491 -9.13859e-17 -8.16613e-18)
(0.0954082 -8.56492e-17 -6.66602e-18)
(0.0976525 -8.11373e-17 -5.7655e-18)
(0.0997919 -7.70276e-17 -5.4059e-18)
(0.101835 -7.31366e-17 -4.96624e-18)
(0.103789 -6.98378e-17 -4.48008e-18)
(0.105661 -6.66938e-17 -4.23458e-18)
(0.107457 -6.30402e-17 -3.90413e-18)
(0.109182 -6.00541e-17 -3.15892e-18)
(0.110842 -5.76056e-17 -2.76967e-18)
(0.112439 -5.51272e-17 -1.95118e-18)
(0.113979 -5.31735e-17 -1.90002e-18)
(0.115465 -5.14679e-17 -1.90294e-18)
(0.1169 -5.00346e-17 -2.18908e-18)
(0.118286 -4.82119e-17 -2.4876e-18)
(0.119628 -4.6468e-17 -2.19597e-18)
(0.120926 -4.5101e-17 -2.0171e-18)
(0.122184 -4.32512e-17 -1.96727e-18)
(0.123404 -4.14384e-17 -1.52644e-18)
(0.124586 -3.98282e-17 -1.05156e-18)
(0.125734 -3.84134e-17 -1.09017e-18)
(0.126849 -3.83661e-17 -1.55244e-18)
(0.127932 -3.8053e-17 -1.48126e-18)
(0.128985 -3.72167e-17 -1.54976e-18)
(0.130009 -3.65741e-17 -1.1953e-18)
(0.131006 -3.5802e-17 -1.11149e-18)
(0.131975 -3.5367e-17 -1.22201e-18)
(0.13292 -3.45538e-17 -1.20263e-18)
(0.13384 -3.42271e-17 -1.06936e-18)
(0.134736 -3.43525e-17 -9.21076e-19)
(0.13561 -3.43289e-17 -8.57495e-19)
(0.136462 -3.39508e-17 -1.51869e-18)
(0.137294 -3.32443e-17 -1.46204e-18)
(0.138105 -3.31569e-17 -1.4399e-18)
(0.138896 -3.30096e-17 -1.87295e-18)
(0.139669 -3.2232e-17 -1.82296e-18)
(0.140423 -3.17384e-17 -1.4689e-18)
(0.14116 -3.09436e-17 -1.55038e-18)
(0.141879 -3.00784e-17 -1.33891e-18)
(0.142582 -2.94821e-17 -1.62898e-18)
(0.143269 -2.88088e-17 -2.08926e-18)
(0.14394 -2.82467e-17 -1.54188e-18)
(0.144596 -2.75503e-17 -1.39683e-18)
(0.145237 -2.68706e-17 -1.33364e-18)
(0.145864 -2.57937e-17 -1.48842e-18)
(0.146476 -2.50319e-17 -8.31318e-19)
(0.147075 -2.49969e-17 -1.48546e-18)
(0.147661 -2.4112e-17 -1.9717e-18)
(0.148234 -2.26302e-17 -9.46233e-19)
(0.148794 -2.13752e-17 -1.05165e-18)
(0.149341 -2.00725e-17 -1.52871e-18)
(0.149877 -1.84517e-17 -1.73016e-18)
(0.1504 -1.72879e-17 -9.46592e-19)
(0.150912 -1.79236e-17 -3.43722e-19)
(0.151412 -1.81028e-17 -1.05372e-18)
(0.151901 -1.70324e-17 -1.0126e-18)
(0.152379 -1.69199e-17 -4.74798e-20)
(0.152847 -1.71437e-17 3.28554e-19)
(0.153303 -1.68971e-17 -9.00389e-20)
(0.15375 -1.60704e-17 -1.14267e-18)
(0.154185 -1.52699e-17 -1.04361e-18)
(0.154611 -1.5152e-17 -7.74526e-19)
(0.155027 -1.5087e-17 -1.67837e-19)
(0.155433 -1.47554e-17 -1.01042e-18)
(0.155829 -1.31924e-17 -1.70246e-18)
(0.156215 -1.1504e-17 -1.26152e-18)
(0.156592 -1.08752e-17 -8.17438e-19)
(0.15696 -1.07945e-17 -2.58269e-19)
(0.157318 -1.0398e-17 -1.20401e-18)
(0.157667 -8.90237e-18 -5.89873e-19)
(0.158007 -6.9997e-18 -4.15745e-19)
(0.158338 -6.42492e-18 3.49186e-19)
(0.15866 -7.36924e-18 2.93167e-19)
(0.158973 -7.85866e-18 -4.03875e-19)
(0.159276 -7.84834e-18 6.22656e-19)
(0.159572 -8.31845e-18 5.64855e-20)
(0.159858 -8.68492e-18 -6.20726e-19)
(0.160135 -7.55235e-18 -5.54713e-19)
(0.160404 -5.68514e-18 -1.27257e-18)
(0.160664 -4.52257e-18 -1.16979e-18)
(0.160915 -4.59852e-18 -3.13563e-19)
(0.161158 -4.51618e-18 4.89063e-19)
(0.161392 -4.65951e-18 8.45024e-19)
(0.161617 -3.56719e-18 1.46624e-20)
(0.161834 -2.32816e-18 4.39203e-19)
(0.162041 -2.84676e-18 -4.17063e-20)
(0.16224 -2.12493e-18 -3.46138e-19)
(0.162431 -1.88917e-18 8.18962e-19)
(0.162612 -3.21317e-18 1.52811e-18)
(0.162785 -4.34937e-18 4.85226e-19)
(0.162949 -4.44088e-18 8.01561e-19)
(0.163104 -4.14142e-18 2.65427e-19)
(0.16325 -4.33262e-18 -1.7186e-19)
(0.163386 -3.90556e-18 2.17718e-19)
(0.163514 -2.25152e-18 -5.70876e-19)
(0.163633 -2.92205e-18 1.2123e-18)
(0.163742 -4.23902e-18 6.60747e-19)
(0.163842 -4.19674e-18 9.29053e-20)
(0.163933 -3.92023e-18 -9.62119e-19)
(0.164014 -2.31564e-18 -4.67584e-19)
(0.164085 1.14093e-19 -6.20423e-19)
(0.164147 7.49043e-19 1.1454e-19)
(0.164198 3.52315e-19 5.72564e-20)
(0.16424 6.60677e-19 3.79102e-19)
(0.164271 -3.12469e-20 4.25591e-19)
(0.164292 9.40695e-19 5.45616e-20)
(0.164303 9.03965e-19 1.0938e-18)
(0.00686361 -5.65976e-17 -3.23447e-16)
(0.0184578 -2.68096e-16 -5.49612e-16)
(0.0294972 -3.62144e-16 -4.89672e-16)
(0.039749 -3.83882e-16 -3.80563e-16)
(0.0490921 -3.67603e-16 -2.79212e-16)
(0.0575266 -3.3586e-16 -2.02064e-16)
(0.0651289 -3.00626e-16 -1.47767e-16)
(0.0720006 -2.67316e-16 -1.10574e-16)
(0.0782423 -2.37904e-16 -8.44498e-17)
(0.0839432 -2.12764e-16 -6.60176e-17)
(0.089179 -1.91324e-16 -5.30753e-17)
(0.0940128 -1.72438e-16 -4.36138e-17)
(0.0984968 -1.56195e-16 -3.61856e-17)
(0.102675 -1.42327e-16 -3.07395e-17)
(0.106582 -1.30039e-16 -2.62293e-17)
(0.11025 -1.19459e-16 -2.24786e-17)
(0.113705 -1.1036e-16 -1.93174e-17)
(0.116967 -1.026e-16 -1.64953e-17)
(0.120056 -9.52579e-17 -1.39936e-17)
(0.122987 -8.88473e-17 -1.17041e-17)
(0.125775 -8.40093e-17 -1.04639e-17)
(0.128432 -7.92772e-17 -9.50726e-18)
(0.130968 -7.46397e-17 -8.67289e-18)
(0.133394 -7.06423e-17 -7.92726e-18)
(0.135716 -6.68831e-17 -7.18516e-18)
(0.137944 -6.29265e-17 -6.43908e-18)
(0.140082 -5.95144e-17 -5.53424e-18)
(0.142139 -5.63827e-17 -4.72846e-18)
(0.144117 -5.37736e-17 -4.35429e-18)
(0.146024 -5.18639e-17 -4.05713e-18)
(0.147862 -4.99473e-17 -3.889e-18)
(0.149636 -4.81001e-17 -4.11032e-18)
(0.15135 -4.56193e-17 -4.38555e-18)
(0.153007 -4.33146e-17 -3.78312e-18)
(0.15461 -4.16325e-17 -3.13658e-18)
(0.156162 -3.96052e-17 -2.87617e-18)
(0.157665 -3.75098e-17 -1.99991e-18)
(0.159122 -3.59625e-17 -1.46429e-18)
(0.160536 -3.49646e-17 -1.99934e-18)
(0.161908 -3.42204e-17 -2.69162e-18)
(0.16324 -3.32563e-17 -2.45969e-18)
(0.164534 -3.19987e-17 -2.58977e-18)
(0.165791 -3.10173e-17 -1.85013e-18)
(0.167014 -3.04167e-17 -1.68017e-18)
(0.168203 -2.96112e-17 -1.98889e-18)
(0.169361 -2.88073e-17 -1.73719e-18)
(0.170487 -2.84013e-17 -1.89686e-18)
(0.171584 -2.82049e-17 -1.4408e-18)
(0.172653 -2.84373e-17 -1.35503e-18)
(0.173695 -2.81219e-17 -2.28635e-18)
(0.17471 -2.7165e-17 -2.26479e-18)
(0.175699 -2.71068e-17 -1.91874e-18)
(0.176664 -2.70018e-17 -2.27457e-18)
(0.177606 -2.60098e-17 -2.94483e-18)
(0.178524 -2.55172e-17 -2.32802e-18)
(0.179421 -2.4995e-17 -2.2332e-18)
(0.180295 -2.43912e-17 -1.87163e-18)
(0.181149 -2.414e-17 -2.2075e-18)
(0.181983 -2.32169e-17 -2.65391e-18)
(0.182798 -2.26308e-17 -2.18874e-18)
(0.183593 -2.23092e-17 -1.78358e-18)
(0.18437 -2.19438e-17 -2.31988e-18)
(0.185129 -2.10329e-17 -2.73173e-18)
(0.18587 -2.05883e-17 -2.20836e-18)
(0.186595 -2.09477e-17 -1.73337e-18)
(0.187302 -1.95936e-17 -2.1051e-18)
(0.187994 -1.8507e-17 -8.06489e-19)
(0.18867 -1.8141e-17 -1.48266e-18)
(0.18933 -1.70138e-17 -1.86655e-18)
(0.189975 -1.55245e-17 -2.04919e-18)
(0.190606 -1.45404e-17 -2.16019e-18)
(0.191222 -1.5257e-17 -1.86052e-18)
(0.191824 -1.5348e-17 -1.94804e-18)
(0.192412 -1.41519e-17 -1.1315e-18)
(0.192986 -1.3939e-17 -4.80711e-19)
(0.193547 -1.46007e-17 1.72445e-19)
(0.194095 -1.51629e-17 -4.53725e-19)
(0.194631 -1.441e-17 -2.04312e-18)
(0.195153 -1.30117e-17 -2.17274e-18)
(0.195663 -1.24915e-17 -1.4243e-18)
(0.196161 -1.28163e-17 -1.67053e-18)
(0.196647 -1.26581e-17 -1.86285e-18)
(0.197121 -1.12102e-17 -2.0418e-18)
(0.197583 -9.61341e-18 -2.36804e-18)
(0.198033 -8.60862e-18 -1.41564e-18)
(0.198472 -8.54856e-18 -6.27636e-19)
(0.1989 -7.93262e-18 -1.3754e-18)
(0.199316 -6.57624e-18 3.43027e-19)
(0.199722 -5.12675e-18 1.30127e-21)
(0.200116 -4.70355e-18 9.18624e-20)
(0.200499 -5.68527e-18 5.47441e-21)
(0.200872 -5.43628e-18 1.50864e-19)
(0.201234 -5.51082e-18 1.16893e-18)
(0.201585 -6.35246e-18 -1.66244e-20)
(0.201926 -6.07546e-18 -5.49229e-19)
(0.202256 -5.16137e-18 -9.27949e-19)
(0.202575 -3.67284e-18 -2.37131e-18)
(0.202884 -2.17994e-18 -1.95081e-18)
(0.203182 -1.70913e-18 -2.87804e-19)
(0.203471 -1.6615e-18 7.86268e-19)
(0.203748 -2.16491e-18 7.89761e-19)
(0.204015 -1.48073e-18 1.39905e-18)
(0.204272 -1.01196e-18 1.41394e-18)
(0.204519 -1.69018e-18 8.17009e-19)
(0.204755 -8.55603e-19 4.14802e-19)
(0.20498 -6.85073e-19 1.10078e-18)
(0.205195 -2.32359e-18 2.1242e-18)
(0.2054 -3.21573e-18 8.31693e-19)
(0.205594 -3.62916e-18 2.00196e-18)
(0.205777 -4.16387e-18 8.48684e-19)
(0.20595 -3.90928e-18 -3.7282e-20)
(0.206112 -3.46806e-18 3.95714e-20)
(0.206263 -1.74208e-18 -1.21723e-18)
(0.206404 -1.84742e-18 8.28722e-19)
(0.206533 -3.42562e-18 1.65615e-18)
(0.206651 -3.81373e-18 1.95053e-18)
(0.206758 -3.13235e-18 4.4027e-19)
(0.206854 -1.30872e-18 -4.16101e-19)
(0.206939 5.93726e-19 1.6884e-19)
(0.207011 1.12873e-18 7.64834e-19)
(0.207072 6.72385e-19 7.09353e-19)
(0.207122 7.84318e-19 4.97843e-19)
(0.207159 2.14377e-19 6.18852e-19)
(0.207184 1.41697e-18 7.21363e-19)
(0.207196 1.00822e-18 1.77141e-18)
(0.00851327 -2.97957e-17 -2.07552e-16)
(0.0228857 -1.51789e-16 -4.17359e-16)
(0.0365902 -2.39e-16 -4.23169e-16)
(0.0490921 -2.82761e-16 -3.62845e-16)
(0.0601753 -2.93292e-16 -2.88485e-16)
(0.069947 -2.84739e-16 -2.23652e-16)
(0.0786244 -2.6717e-16 -1.73444e-16)
(0.0864057 -2.46077e-16 -1.3613e-16)
(0.0934478 -2.2489e-16 -1.08355e-16)
(0.0998719 -2.05414e-16 -8.75786e-17)
(0.105773 -1.87606e-16 -7.18714e-17)
(0.111225 -1.71098e-16 -5.96687e-17)
(0.116288 -1.56388e-16 -4.98983e-17)
(0.121013 -1.43462e-16 -4.20417e-17)
(0.125437 -1.31793e-16 -3.60141e-17)
(0.129596 -1.21434e-16 -3.08699e-17)
(0.133517 -1.12126e-16 -2.70119e-17)
(0.137225 -1.03765e-16 -2.39782e-17)
(0.140739 -9.62967e-17 -2.02167e-17)
(0.144077 -9.01973e-17 -1.73349e-17)
(0.147254 -8.51535e-17 -1.5547e-17)
(0.150284 -8.00274e-17 -1.43022e-17)
(0.153179 -7.50636e-17 -1.31034e-17)
(0.155949 -7.06402e-17 -1.10166e-17)
(0.158603 -6.66219e-17 -9.96641e-18)
(0.161149 -6.2404e-17 -8.85024e-18)
(0.163594 -5.87444e-17 -7.94836e-18)
(0.165946 -5.58873e-17 -7.09305e-18)
(0.16821 -5.31333e-17 -6.97547e-18)
(0.170391 -5.0636e-17 -6.29437e-18)
(0.172495 -4.85036e-17 -5.9632e-18)
(0.174526 -4.64636e-17 -5.78384e-18)
(0.176487 -4.37226e-17 -5.79761e-18)
(0.178384 -4.1082e-17 -5.18196e-18)
(0.180219 -3.91375e-17 -4.49577e-18)
(0.181995 -3.69077e-17 -3.78567e-18)
(0.183715 -3.48419e-17 -2.83205e-18)
(0.185383 -3.36895e-17 -2.59256e-18)
(0.187 -3.25348e-17 -3.12582e-18)
(0.188569 -3.12951e-17 -3.43848e-18)
(0.190092 -3.00376e-17 -3.4034e-18)
(0.191572 -2.85034e-17 -3.41884e-18)
(0.193009 -2.73885e-17 -2.88045e-18)
(0.194406 -2.67795e-17 -2.02774e-18)
(0.195765 -2.58208e-17 -2.09606e-18)
(0.197087 -2.50703e-17 -1.76652e-18)
(0.198373 -2.45574e-17 -2.28015e-18)
(0.199625 -2.40649e-17 -1.71003e-18)
(0.200844 -2.45296e-17 -1.81484e-18)
(0.202032 -2.4206e-17 -2.36564e-18)
(0.203189 -2.3051e-17 -2.48384e-18)
(0.204316 -2.28276e-17 -2.50828e-18)
(0.205415 -2.29316e-17 -2.70154e-18)
(0.206487 -2.17665e-17 -3.2379e-18)
(0.207532 -2.08499e-17 -2.49845e-18)
(0.208552 -2.04809e-17 -2.75144e-18)
(0.209547 -2.03516e-17 -2.33975e-18)
(0.210517 -2.04078e-17 -2.56798e-18)
(0.211465 -1.93162e-17 -2.39385e-18)
(0.212389 -1.84979e-17 -2.1706e-18)
(0.213292 -1.86006e-17 -1.87314e-18)
(0.214173 -1.86588e-17 -2.67914e-18)
(0.215033 -1.76522e-17 -3.52994e-18)
(0.215874 -1.67866e-17 -3.39429e-18)
(0.216694 -1.71136e-17 -2.83984e-18)
(0.217495 -1.607e-17 -1.65809e-18)
(0.218278 -1.54801e-17 -3.39649e-19)
(0.219042 -1.56387e-17 -1.63866e-18)
(0.219789 -1.44618e-17 -2.13466e-18)
(0.220518 -1.36017e-17 -1.65421e-18)
(0.22123 -1.29378e-17 -2.91717e-18)
(0.221926 -1.29273e-17 -2.98388e-18)
(0.222605 -1.24466e-17 -1.97527e-18)
(0.223269 -1.17237e-17 -1.31614e-18)
(0.223916 -1.18969e-17 -1.03099e-18)
(0.224549 -1.2495e-17 -1.08355e-18)
(0.225166 -1.34329e-17 -1.21528e-18)
(0.225769 -1.29051e-17 -2.69421e-18)
(0.226357 -1.11098e-17 -3.07415e-18)
(0.226931 -1.06221e-17 -1.92992e-18)
(0.227491 -1.10174e-17 -2.73853e-18)
(0.228037 -1.06084e-17 -2.95794e-18)
(0.228569 -9.58074e-18 -2.75535e-18)
(0.229088 -7.94888e-18 -2.55831e-18)
(0.229594 -6.64022e-18 -2.49352e-18)
(0.230086 -6.77238e-18 -1.7331e-18)
(0.230566 -5.87989e-18 -1.14918e-18)
(0.231033 -4.94905e-18 3.74494e-19)
(0.231488 -4.3479e-18 -3.58079e-19)
(0.231929 -3.66148e-18 -4.11447e-19)
(0.232359 -4.06782e-18 2.15709e-19)
(0.232776 -3.70526e-18 1.3417e-18)
(0.233181 -4.31534e-18 1.44193e-18)
(0.233574 -5.06637e-18 8.38589e-19)
(0.233955 -4.68383e-18 8.69115e-19)
(0.234324 -4.31446e-18 -7.78313e-19)
(0.234681 -2.69326e-18 -1.78739e-18)
(0.235027 -4.99339e-19 -1.60599e-18)
(0.23536 -1.82663e-19 7.22077e-19)
(0.235682 -7.19844e-19 1.63096e-18)
(0.235992 -7.96161e-19 5.58506e-19)
(0.23629 -3.82396e-19 1.97101e-18)
(0.236577 -5.45762e-19 1.69697e-18)
(0.236852 -1.24994e-18 1.39377e-18)
(0.237115 -5.65346e-19 8.20847e-19)
(0.237367 -3.16857e-19 1.07943e-18)
(0.237607 -2.02641e-18 1.90484e-18)
(0.237835 -2.67068e-18 1.00343e-18)
(0.238051 -3.10299e-18 1.26227e-18)
(0.238255 -4.1008e-18 1.07885e-18)
(0.238448 -3.83425e-18 1.13611e-18)
(0.238628 -3.61804e-18 -2.1401e-19)
(0.238797 -1.74459e-18 -1.69915e-18)
(0.238953 -1.00395e-18 7.12144e-20)
(0.239097 -2.16638e-18 1.51727e-18)
(0.239229 -2.94038e-18 3.05793e-18)
(0.239348 -3.16964e-18 2.10093e-18)
(0.239455 -1.16427e-18 -5.28519e-19)
(0.239549 9.27223e-19 8.48788e-19)
(0.23963 9.68737e-19 1.14403e-18)
(0.239698 4.6117e-19 9.15415e-19)
(0.239752 6.7546e-19 -2.428e-19)
(0.239794 4.55902e-19 5.29817e-19)
(0.239822 1.40751e-18 8.39249e-20)
(0.239836 9.48334e-19 2.43034e-18)
(0.0100695 -1.51884e-17 -1.46479e-16)
(0.0269986 -8.90924e-17 -3.26663e-16)
(0.0431109 -1.58515e-16 -3.58627e-16)
(0.0575266 -2.05411e-16 -3.29724e-16)
(0.069947 -2.28101e-16 -2.78747e-16)
(0.0806422 -2.33752e-16 -2.28219e-16)
(0.0900073 -2.29176e-16 -1.85702e-16)
(0.0983498 -2.18714e-16 -1.51654e-16)
(0.105883 -2.05518e-16 -1.25189e-16)
(0.112756 -1.91678e-16 -1.04073e-16)
(0.119078 -1.78038e-16 -8.74052e-17)
(0.12493 -1.64549e-16 -7.41226e-17)
(0.130378 -1.51921e-16 -6.25058e-17)
(0.135472 -1.40799e-16 -5.30403e-17)
(0.140253 -1.30529e-16 -4.56665e-17)
(0.144756 -1.21165e-16 -3.93363e-17)
(0.14901 -1.13032e-16 -3.41911e-17)
(0.15304 -1.04567e-16 -3.01929e-17)
(0.156866 -9.67118e-17 -2.64231e-17)
(0.160506 -9.1022e-17 -2.2755e-17)
(0.163976 -8.62436e-17 -2.01548e-17)
(0.16729 -8.11748e-17 -1.85255e-17)
(0.170459 -7.52528e-17 -1.67951e-17)
(0.173494 -7.06584e-17 -1.45021e-17)
(0.176406 -6.71098e-17 -1.28498e-17)
(0.179201 -6.29969e-17 -1.1384e-17)
(0.181889 -5.93895e-17 -1.03898e-17)
(0.184475 -5.63281e-17 -9.70764e-18)
(0.186967 -5.33436e-17 -9.14246e-18)
(0.189369 -5.06279e-17 -8.0243e-18)
(0.191687 -4.84129e-17 -7.63274e-18)
(0.193926 -4.61178e-17 -7.54476e-18)
(0.196089 -4.33024e-17 -7.45284e-18)
(0.198182 -4.047e-17 -7.35407e-18)
(0.200207 -3.81294e-17 -6.16226e-18)
(0.202167 -3.57887e-17 -5.14102e-18)
(0.204067 -3.40427e-17 -3.99208e-18)
(0.205909 -3.30486e-17 -4.47173e-18)
(0.207695 -3.16867e-17 -4.98487e-18)
(0.209428 -3.01416e-17 -5.01593e-18)
(0.211111 -2.87586e-17 -4.74088e-18)
(0.212746 -2.69895e-17 -4.23175e-18)
(0.214334 -2.53847e-17 -3.43417e-18)
(0.215878 -2.47502e-17 -2.39707e-18)
(0.217379 -2.39072e-17 -1.26932e-18)
(0.218839 -2.33632e-17 -1.55973e-18)
(0.220259 -2.27936e-17 -1.7295e-18)
(0.221642 -2.2029e-17 -2.0293e-18)
(0.222989 -2.24756e-17 -2.47133e-18)
(0.2243 -2.21268e-17 -2.80702e-18)
(0.225577 -2.10727e-17 -2.79517e-18)
(0.226822 -2.06461e-17 -3.35618e-18)
(0.228035 -2.04414e-17 -3.82468e-18)
(0.229217 -1.91476e-17 -2.9184e-18)
(0.23037 -1.85072e-17 -2.84727e-18)
(0.231494 -1.82528e-17 -3.37119e-18)
(0.232591 -1.79317e-17 -2.76353e-18)
(0.233661 -1.78462e-17 -3.4398e-18)
(0.234705 -1.6798e-17 -2.51993e-18)
(0.235723 -1.62349e-17 -2.25246e-18)
(0.236717 -1.64423e-17 -1.5932e-18)
(0.237687 -1.67339e-17 -1.83414e-18)
(0.238634 -1.57843e-17 -2.57764e-18)
(0.239558 -1.49416e-17 -3.16078e-18)
(0.240461 -1.44545e-17 -3.99696e-18)
(0.241342 -1.30995e-17 -1.95204e-18)
(0.242202 -1.37732e-17 -1.14028e-18)
(0.243042 -1.44062e-17 -2.25853e-18)
(0.243862 -1.27001e-17 -2.93336e-18)
(0.244662 -1.23158e-17 -2.74467e-18)
(0.245444 -1.21253e-17 -3.14792e-18)
(0.246207 -1.11942e-17 -2.9677e-18)
(0.246952 -1.06942e-17 -1.88169e-18)
(0.247679 -1.03234e-17 -1.14645e-18)
(0.248389 -1.05184e-17 -1.25774e-18)
(0.249082 -1.09821e-17 -1.67722e-18)
(0.249758 -1.19807e-17 -2.11347e-18)
(0.250418 -1.18721e-17 -2.26389e-18)
(0.251062 -9.74082e-18 -2.68518e-18)
(0.25169 -9.32287e-18 -1.34301e-18)
(0.252302 -1.01023e-17 -2.18116e-18)
(0.252899 -9.44364e-18 -3.64194e-18)
(0.253481 -8.11712e-18 -3.70002e-18)
(0.254048 -7.02708e-18 -3.42836e-18)
(0.2546 -6.02267e-18 -4.04941e-18)
(0.255138 -5.1435e-18 -3.50919e-18)
(0.255662 -4.13701e-18 -6.38144e-19)
(0.256171 -4.13924e-18 -4.35114e-20)
(0.256667 -3.76428e-18 -6.77994e-19)
(0.257149 -2.74508e-18 1.70561e-19)
(0.257617 -2.78895e-18 8.71355e-19)
(0.258072 -2.83283e-18 1.95305e-18)
(0.258513 -3.63825e-18 2.40468e-18)
(0.258941 -3.89454e-18 2.21024e-18)
(0.259356 -4.13416e-18 2.28062e-18)
(0.259758 -4.05379e-18 8.01466e-19)
(0.260146 -2.37732e-18 8.23102e-19)
(0.260522 -1.23744e-19 7.43243e-19)
(0.260885 5.75227e-19 1.45163e-18)
(0.261235 -5.51626e-19 4.07062e-19)
(0.261572 -4.38442e-19 3.87665e-19)
(0.261896 1.438e-19 2.00982e-18)
(0.262208 -4.03718e-19 2.2016e-18)
(0.262507 -1.18391e-18 1.93621e-18)
(0.262793 -8.09098e-19 1.31832e-18)
(0.263066 -3.77215e-19 7.99526e-19)
(0.263326 -1.92689e-18 1.40496e-18)
(0.263574 -2.85246e-18 9.37206e-19)
(0.263809 -2.85956e-18 5.72011e-19)
(0.264031 -3.19617e-18 1.07586e-18)
(0.264239 -3.79539e-18 2.63242e-18)
(0.264435 -4.27536e-18 -1.89466e-19)
(0.264618 -1.8339e-18 -1.01946e-18)
(0.264788 -4.86301e-19 -1.52291e-19)
(0.264944 -1.21093e-18 1.18666e-18)
(0.265087 -2.23027e-18 1.99823e-18)
(0.265216 -3.49478e-18 2.14799e-18)
(0.265331 -1.32389e-18 7.50191e-19)
(0.265433 1.04701e-18 9.80108e-19)
(0.265521 7.50034e-19 1.07234e-18)
(0.265595 -4.99307e-20 1.58048e-18)
(0.265654 4.53674e-19 -1.00874e-18)
(0.265699 5.21419e-19 3.24253e-19)
(0.265729 1.81686e-18 -2.29316e-18)
(0.265744 1.36474e-18 1.70967e-18)
(0.0115271 -7.8532e-18 -1.09176e-16)
(0.0307964 -5.48878e-17 -2.62491e-16)
(0.0490703 -1.07892e-16 -3.03407e-16)
(0.0651289 -1.50591e-16 -2.93478e-16)
(0.0786244 -1.77141e-16 -2.60354e-16)
(0.0900073 -1.90351e-16 -2.22742e-16)
(0.0998476 -1.94015e-16 -1.88605e-16)
(0.108558 -1.91318e-16 -1.59412e-16)
(0.116404 -1.84611e-16 -1.35257e-16)
(0.123564 -1.76036e-16 -1.15314e-16)
(0.130157 -1.66769e-16 -9.87553e-17)
(0.136274 -1.56056e-16 -8.48021e-17)
(0.14198 -1.4557e-16 -7.30083e-17)
(0.147328 -1.36635e-16 -6.30505e-17)
(0.15236 -1.27915e-16 -5.47833e-17)
(0.15711 -1.19554e-16 -4.75948e-17)
(0.161607 -1.11984e-16 -4.15183e-17)
(0.165875 -1.04619e-16 -3.5989e-17)
(0.169936 -9.7307e-17 -3.17139e-17)
(0.173806 -9.1574e-17 -2.75546e-17)
(0.177501 -8.72147e-17 -2.44091e-17)
(0.181035 -8.21884e-17 -2.19408e-17)
(0.18442 -7.65679e-17 -2.01095e-17)
(0.187667 -7.18669e-17 -1.85576e-17)
(0.190785 -6.80061e-17 -1.64198e-17)
(0.193782 -6.41504e-17 -1.46936e-17)
(0.196667 -6.07302e-17 -1.32814e-17)
(0.199445 -5.76078e-17 -1.25121e-17)
(0.202124 -5.41821e-17 -1.18397e-17)
(0.20471 -5.1487e-17 -1.02003e-17)
(0.207207 -4.95576e-17 -9.58638e-18)
(0.209619 -4.71972e-17 -9.5267e-18)
(0.211953 -4.44588e-17 -9.59633e-18)
(0.214211 -4.10124e-17 -9.73891e-18)
(0.216397 -3.80035e-17 -8.37168e-18)
(0.218516 -3.57927e-17 -6.88451e-18)
(0.220569 -3.47909e-17 -6.19267e-18)
(0.22256 -3.42083e-17 -6.31447e-18)
(0.224492 -3.21396e-17 -6.84453e-18)
(0.226368 -3.00323e-17 -6.78673e-18)
(0.228189 -2.82863e-17 -6.46624e-18)
(0.229959 -2.64163e-17 -5.37621e-18)
(0.231678 -2.49183e-17 -4.40653e-18)