/*--------------------------------*- C++ -*----------------------------------*\
| =========                 |                                                 |
| \\      /  F ield         | OpenFOAM: The Open Source CFD Toolbox           |
|  \\    /   O peration     | Version:  2306                                  |
|   \\  /    A nd           | Website:  www.openfoam.com                      |
|    \\/     M anipulation  |                                                 |
\*---------------------------------------------------------------------------*/
// * * * * * * * * * * * * * * * * * * * * * * * * * * * * * * * * * * * * * //
FoamFile
{
    version         2;
    format          ascii;
    class           volScalarField;
    location        "7258.82999998519063";
    object          epsilon;
}

dimensions      [ 0 2 -3 0 0 0 0 ];

internalField   nonuniform List<scalar> 
14751
(
4.34939e-06
4.32515e-06
4.31156e-06
4.25318e-06
4.18923e-06
4.09927e-06
3.99616e-06
3.87951e-06
3.75177e-06
3.61808e-06
3.48002e-06
3.34071e-06
3.20166e-06
3.06468e-06
2.93133e-06
2.80281e-06
2.6801e-06
2.56376e-06
2.45424e-06
2.35178e-06
2.25632e-06
2.16779e-06
2.08595e-06
2.01053e-06
1.94132e-06
1.87781e-06
1.81983e-06
1.76684e-06
1.71869e-06
1.67495e-06
1.63531e-06
1.59948e-06
1.56716e-06
1.53811e-06
1.51206e-06
1.48882e-06
1.46822e-06
1.45002e-06
1.43407e-06
1.42026e-06
1.40849e-06
1.39857e-06
1.39037e-06
1.38381e-06
1.3788e-06
1.37534e-06
1.37338e-06
1.37289e-06
1.37384e-06
1.37623e-06
1.38006e-06
1.3853e-06
1.39199e-06
1.40017e-06
1.40993e-06
1.42125e-06
1.4342e-06
1.44884e-06
1.46524e-06
1.48344e-06
1.50349e-06
1.52554e-06
1.54969e-06
1.57615e-06
1.60503e-06
1.63642e-06
1.67044e-06
1.70731e-06
1.74718e-06
1.79016e-06
1.83643e-06
1.88619e-06
1.93959e-06
1.99687e-06
2.05816e-06
2.12384e-06
2.19403e-06
2.26899e-06
2.34882e-06
2.43358e-06
2.52356e-06
2.61854e-06
2.71897e-06
2.82425e-06
2.93451e-06
3.04935e-06
3.16805e-06
3.29009e-06
3.41415e-06
3.53883e-06
3.66289e-06
3.78237e-06
3.89739e-06
4.00275e-06
4.09809e-06
4.17864e-06
4.24643e-06
4.28782e-06
4.33595e-06
3.40599e-06
3.38684e-06
3.37043e-06
3.32568e-06
3.27488e-06
3.20709e-06
3.12982e-06
3.04328e-06
2.94926e-06
2.85104e-06
2.74984e-06
2.64769e-06
2.54565e-06
2.44498e-06
2.34676e-06
2.25183e-06
2.1609e-06
2.07441e-06
1.9927e-06
1.91597e-06
1.84422e-06
1.77745e-06
1.71551e-06
1.65824e-06
1.60552e-06
1.557e-06
1.51258e-06
1.47188e-06
1.43482e-06
1.40107e-06
1.37044e-06
1.3427e-06
1.31766e-06
1.29512e-06
1.2749e-06
1.25685e-06
1.24085e-06
1.22671e-06
1.21435e-06
1.20366e-06
1.19456e-06
1.18693e-06
1.18068e-06
1.17574e-06
1.17205e-06
1.1696e-06
1.16835e-06
1.16829e-06
1.16938e-06
1.17163e-06
1.17504e-06
1.1796e-06
1.18533e-06
1.19225e-06
1.20044e-06
1.20989e-06
1.22065e-06
1.23276e-06
1.24628e-06
1.26125e-06
1.27771e-06
1.29576e-06
1.31548e-06
1.33702e-06
1.36044e-06
1.38585e-06
1.41331e-06
1.44298e-06
1.47496e-06
1.50936e-06
1.54628e-06
1.58587e-06
1.62823e-06
1.67353e-06
1.72184e-06
1.77343e-06
1.82835e-06
1.88676e-06
1.94873e-06
2.01427e-06
2.08353e-06
2.15634e-06
2.23292e-06
2.31282e-06
2.39605e-06
2.48221e-06
2.57075e-06
2.66117e-06
2.75247e-06
2.84359e-06
2.9335e-06
3.01961e-06
3.1016e-06
3.17622e-06
3.2428e-06
3.29854e-06
3.34399e-06
3.37203e-06
3.40041e-06
2.77515e-06
2.75751e-06
2.73761e-06
2.69883e-06
2.65372e-06
2.59707e-06
2.53328e-06
2.46303e-06
2.38781e-06
2.30979e-06
2.23003e-06
2.14991e-06
2.07024e-06
1.99186e-06
1.91556e-06
1.84192e-06
1.77143e-06
1.7044e-06
1.64106e-06
1.58154e-06
1.52585e-06
1.47397e-06
1.42581e-06
1.38123e-06
1.34014e-06
1.30231e-06
1.26762e-06
1.23584e-06
1.20686e-06
1.18046e-06
1.15649e-06
1.13478e-06
1.11518e-06
1.09755e-06
1.08175e-06
1.06766e-06
1.05519e-06
1.04421e-06
1.03463e-06
1.02639e-06
1.01942e-06
1.01363e-06
1.00896e-06
1.00536e-06
1.00277e-06
1.0012e-06
1.00061e-06
1.00098e-06
1.00231e-06
1.00459e-06
1.00782e-06
1.012e-06
1.01715e-06
1.02329e-06
1.03046e-06
1.03867e-06
1.04796e-06
1.05837e-06
1.06994e-06
1.08271e-06
1.09671e-06
1.11203e-06
1.12873e-06
1.1469e-06
1.16662e-06
1.18795e-06
1.21097e-06
1.23577e-06
1.26245e-06
1.29108e-06
1.32175e-06
1.35457e-06
1.38962e-06
1.42701e-06
1.46682e-06
1.50921e-06
1.55423e-06
1.60197e-06
1.65249e-06
1.70577e-06
1.7619e-06
1.82074e-06
1.88236e-06
1.94644e-06
2.01289e-06
2.08136e-06
2.15138e-06
2.22248e-06
2.29387e-06
2.36468e-06
2.43402e-06
2.5001e-06
2.56233e-06
2.61856e-06
2.66792e-06
2.70867e-06
2.74052e-06
2.75979e-06
2.77535e-06
2.31976e-06
2.30196e-06
2.27911e-06
2.2432e-06
2.20105e-06
2.15091e-06
2.09542e-06
2.03543e-06
1.9722e-06
1.90727e-06
1.84158e-06
1.77611e-06
1.71145e-06
1.64821e-06
1.58692e-06
1.528e-06
1.47176e-06
1.41841e-06
1.36809e-06
1.32086e-06
1.27672e-06
1.23564e-06
1.19752e-06
1.16226e-06
1.12977e-06
1.09987e-06
1.07247e-06
1.04738e-06
1.0245e-06
1.00368e-06
9.84788e-07
9.677e-07
9.52295e-07
9.38463e-07
9.26098e-07
9.1511e-07
9.05414e-07
8.96923e-07
8.89571e-07
8.83301e-07
8.78059e-07
8.73782e-07
8.70422e-07
8.67944e-07
8.66314e-07
8.65519e-07
8.6554e-07
8.66366e-07
8.67988e-07
8.70407e-07
8.73623e-07
8.77643e-07
8.82476e-07
8.88147e-07
8.9468e-07
9.02095e-07
9.10422e-07
9.19696e-07
9.29951e-07
9.41222e-07
9.53548e-07
9.66985e-07
9.8159e-07
9.97439e-07
1.01459e-06
1.03309e-06
1.05301e-06
1.07443e-06
1.09742e-06
1.12205e-06
1.14838e-06
1.1765e-06
1.20648e-06
1.2384e-06
1.27232e-06
1.30834e-06
1.34651e-06
1.3869e-06
1.42952e-06
1.47436e-06
1.52145e-06
1.57068e-06
1.62202e-06
1.67523e-06
1.73016e-06
1.78649e-06
1.84379e-06
1.90164e-06
1.95936e-06
2.01622e-06
2.07144e-06
2.12374e-06
2.17237e-06
2.21586e-06
2.25326e-06
2.28341e-06
2.30566e-06
2.31808e-06
2.32464e-06
1.97255e-06
1.95397e-06
1.92902e-06
1.89472e-06
1.85465e-06
1.80897e-06
1.75934e-06
1.70675e-06
1.65215e-06
1.59668e-06
1.54119e-06
1.48636e-06
1.43267e-06
1.38053e-06
1.3303e-06
1.28224e-06
1.23657e-06
1.1934e-06
1.15281e-06
1.1148e-06
1.07936e-06
1.04643e-06
1.01594e-06
9.87776e-07
9.61853e-07
9.38041e-07
9.1624e-07
8.96315e-07
8.78169e-07
8.61683e-07
8.46755e-07
8.33284e-07
8.21175e-07
8.1034e-07
8.00697e-07
7.92172e-07
7.84698e-07
7.7821e-07
7.72655e-07
7.67988e-07
7.64166e-07
7.61143e-07
7.58884e-07
7.57361e-07
7.56552e-07
7.56445e-07
7.57026e-07
7.58288e-07
7.60226e-07
7.62843e-07
7.66141e-07
7.70127e-07
7.74812e-07
7.80217e-07
7.86358e-07
7.93258e-07
8.00945e-07
8.09449e-07
8.188e-07
8.29031e-07
8.40177e-07
8.52284e-07
8.654e-07
8.79585e-07
8.94887e-07
9.11355e-07
9.29042e-07
9.48013e-07
9.68325e-07
9.90035e-07
1.0132e-06
1.03789e-06
1.06415e-06
1.09205e-06
1.12164e-06
1.15298e-06
1.18611e-06
1.22107e-06
1.25785e-06
1.29644e-06
1.33682e-06
1.37889e-06
1.42259e-06
1.46769e-06
1.514e-06
1.56124e-06
1.60902e-06
1.65692e-06
1.70437e-06
1.75075e-06
1.79536e-06
1.83723e-06
1.87559e-06
1.90939e-06
1.93769e-06
1.95966e-06
1.97454e-06
1.98129e-06
1.98127e-06
1.69715e-06
1.67769e-06
1.65147e-06
1.61839e-06
1.58024e-06
1.53812e-06
1.4932e-06
1.44642e-06
1.39866e-06
1.35063e-06
1.30308e-06
1.25655e-06
1.21138e-06
1.16785e-06
1.12618e-06
1.08655e-06
1.04907e-06
1.01379e-06
9.80737e-07
9.49892e-07
9.21213e-07
8.94636e-07
8.70083e-07
8.47464e-07
8.26683e-07
8.07642e-07
7.90243e-07
7.74383e-07
7.59971e-07
7.46914e-07
7.35129e-07
7.24534e-07
7.15053e-07
7.06614e-07
6.99153e-07
6.9261e-07
6.86932e-07
6.82068e-07
6.77978e-07
6.74625e-07
6.71975e-07
6.69995e-07
6.68659e-07
6.67945e-07
6.67839e-07
6.68331e-07
6.6941e-07
6.71075e-07
6.73322e-07
6.76154e-07
6.79577e-07
6.83598e-07
6.88229e-07
6.93485e-07
6.99381e-07
7.05942e-07
7.13191e-07
7.21155e-07
7.29863e-07
7.39343e-07
7.49628e-07
7.60756e-07
7.72768e-07
7.85714e-07
7.99632e-07
8.14568e-07
8.30565e-07
8.47677e-07
8.6595e-07
8.85433e-07
9.06172e-07
9.28218e-07
9.51614e-07
9.76404e-07
1.00263e-06
1.03032e-06
1.05951e-06
1.09021e-06
1.12241e-06
1.15608e-06
1.19116e-06
1.22757e-06
1.26519e-06
1.30384e-06
1.3433e-06
1.38329e-06
1.42346e-06
1.46341e-06
1.50266e-06
1.54065e-06
1.57678e-06
1.6103e-06
1.64045e-06
1.66646e-06
1.68747e-06
1.70285e-06
1.71183e-06
1.71385e-06
1.70897e-06
1.47226e-06
1.45214e-06
1.42539e-06
1.39352e-06
1.35736e-06
1.31842e-06
1.27762e-06
1.23579e-06
1.19372e-06
1.1519e-06
1.11089e-06
1.07113e-06
1.03287e-06
9.9628e-07
9.61492e-07
9.286e-07
8.97653e-07
8.68665e-07
8.41616e-07
8.16465e-07
7.93158e-07
7.71629e-07
7.51798e-07
7.33584e-07
7.16895e-07
7.0165e-07
6.8776e-07
6.75143e-07
6.63716e-07
6.53404e-07
6.44139e-07
6.35855e-07
6.28488e-07
6.21983e-07
6.16287e-07
6.11352e-07
6.07135e-07
6.03598e-07
6.00708e-07
5.98436e-07
5.96756e-07
5.95644e-07
5.9508e-07
5.95049e-07
5.9554e-07
5.96545e-07
5.9806e-07
6.00082e-07
6.02612e-07
6.05655e-07
6.09214e-07
6.133e-07
6.17923e-07
6.23096e-07
6.28833e-07
6.35158e-07
6.42093e-07
6.49661e-07
6.57889e-07
6.66802e-07
6.7643e-07
6.86804e-07
6.9796e-07
7.09938e-07
7.22772e-07
7.36501e-07
7.51161e-07
7.66796e-07
7.83442e-07
8.01141e-07
8.19929e-07
8.39843e-07
8.60917e-07
8.8318e-07
9.06659e-07
9.31373e-07
9.57331e-07
9.8453e-07
1.01295e-06
1.04253e-06
1.07323e-06
1.10493e-06
1.1375e-06
1.17077e-06
1.20451e-06
1.23845e-06
1.27227e-06
1.3056e-06
1.33802e-06
1.36903e-06
1.39812e-06
1.4247e-06
1.44808e-06
1.46764e-06
1.48267e-06
1.49262e-06
1.49684e-06
1.49495e-06
1.48651e-06
1.28464e-06
1.26417e-06
1.23754e-06
1.20703e-06
1.17302e-06
1.13712e-06
1.10011e-06
1.06268e-06
1.02555e-06
9.89081e-07
9.53643e-07
9.19577e-07
8.8707e-07
8.56221e-07
8.27088e-07
7.99708e-07
7.74084e-07
7.50199e-07
7.28007e-07
7.07456e-07
6.88482e-07
6.71019e-07
6.54989e-07
6.40319e-07
6.26922e-07
6.14733e-07
6.03668e-07
5.93663e-07
5.84643e-07
5.76547e-07
5.69319e-07
5.62905e-07
5.57254e-07
5.52319e-07
5.48059e-07
5.44436e-07
5.41414e-07
5.38964e-07
5.3706e-07
5.35681e-07
5.34805e-07
5.34414e-07
5.34495e-07
5.35036e-07
5.3603e-07
5.37473e-07
5.3936e-07
5.41693e-07
5.44473e-07
5.47705e-07
5.51395e-07
5.55552e-07
5.60186e-07
5.65309e-07
5.70934e-07
5.77083e-07
5.83778e-07
5.9104e-07
5.98889e-07
6.07351e-07
6.16451e-07
6.26216e-07
6.36676e-07
6.47865e-07
6.5981e-07
6.72545e-07
6.86099e-07
7.00507e-07
7.158e-07
7.32007e-07
7.49157e-07
7.67277e-07
7.86389e-07
8.06511e-07
8.27657e-07
8.4983e-07
8.73025e-07
8.97227e-07
9.22399e-07
9.48482e-07
9.75395e-07
1.00304e-06
1.03126e-06
1.05988e-06
1.08869e-06
1.11743e-06
1.14579e-06
1.17344e-06
1.20001e-06
1.22509e-06
1.24821e-06
1.2689e-06
1.28658e-06
1.30075e-06
1.31081e-06
1.31629e-06
1.31667e-06
1.31166e-06
1.30066e-06
1.1256e-06
1.10515e-06
1.07916e-06
1.05022e-06
1.01853e-06
9.856e-07
9.52164e-07
9.18763e-07
8.86035e-07
8.54227e-07
8.23639e-07
7.94452e-07
7.66823e-07
7.40796e-07
7.16378e-07
6.93566e-07
6.7233e-07
6.52634e-07
6.34418e-07
6.1762e-07
6.02175e-07
5.88018e-07
5.75074e-07
5.63278e-07
5.52552e-07
5.42839e-07
5.34066e-07
5.26178e-07
5.19112e-07
5.12817e-07
5.07245e-07
5.02354e-07
4.98101e-07
4.94448e-07
4.91363e-07
4.88813e-07
4.86772e-07
4.85217e-07
4.84127e-07
4.83484e-07
4.83274e-07
4.83483e-07
4.84101e-07
4.8512e-07
4.86536e-07
4.88346e-07
4.90548e-07
4.93144e-07
4.96138e-07
4.99533e-07
5.03338e-07
5.07559e-07
5.12207e-07
5.17292e-07
5.22828e-07
5.28836e-07
5.35334e-07
5.4234e-07
5.49875e-07
5.57958e-07
5.66612e-07
5.75861e-07
5.8573e-07
5.96244e-07
6.07429e-07
6.1931e-07
6.31912e-07
6.4526e-07
6.59379e-07
6.7429e-07
6.90014e-07
7.06566e-07
7.2396e-07
7.42202e-07
7.61294e-07
7.81227e-07
8.01984e-07
8.23536e-07
8.45835e-07
8.68815e-07
8.92381e-07
9.16426e-07
9.40797e-07
9.65323e-07
9.89786e-07
1.01394e-06
1.03753e-06
1.06023e-06
1.08172e-06
1.10166e-06
1.11965e-06
1.13532e-06
1.14818e-06
1.15781e-06
1.16376e-06
1.1656e-06
1.16293e-06
1.15552e-06
1.14278e-06
9.89204e-07
9.69143e-07
9.44209e-07
9.17052e-07
8.87797e-07
8.57804e-07
8.27759e-07
7.98076e-07
7.69321e-07
7.41647e-07
7.15294e-07
6.9033e-07
6.66872e-07
6.44931e-07
6.24477e-07
6.0548e-07
5.8789e-07
5.71658e-07
5.56718e-07
5.43002e-07
5.30449e-07
5.18995e-07
5.08572e-07
4.99122e-07
4.90573e-07
4.82878e-07
4.75973e-07
4.69812e-07
4.6434e-07
4.59513e-07
4.55296e-07
4.51649e-07
4.4854e-07
4.45938e-07
4.43817e-07
4.4215e-07
4.40917e-07
4.40098e-07
4.39679e-07
4.39646e-07
4.39988e-07
4.40694e-07
4.41758e-07
4.43175e-07
4.44942e-07
4.47057e-07
4.49521e-07
4.52337e-07
4.55507e-07
4.59038e-07
4.62936e-07
4.67208e-07
4.71863e-07
4.76909e-07
4.82366e-07
4.88247e-07
4.9457e-07
5.01351e-07
5.08607e-07
5.16356e-07
5.24616e-07
5.33407e-07
5.4275e-07
5.52665e-07
5.63172e-07
5.74291e-07
5.86042e-07
5.98442e-07
6.11508e-07
6.25254e-07
6.39693e-07
6.54832e-07
6.70673e-07
6.87215e-07
7.04447e-07
7.2235e-07
7.40896e-07
7.60047e-07
7.79744e-07
7.99913e-07
8.20451e-07
8.41251e-07
8.62154e-07
8.82997e-07
9.03572e-07
9.23652e-07
9.42997e-07
9.61334e-07
9.78385e-07
9.93856e-07
1.00742e-06
1.0188e-06
1.02757e-06
1.03341e-06
1.036e-06
1.03494e-06
1.02995e-06
1.0208e-06
1.00698e-06
8.71258e-07
8.51915e-07
8.28366e-07
8.0315e-07
7.76405e-07
7.49294e-07
7.22465e-07
6.96223e-07
6.71064e-07
6.47071e-07
6.24422e-07
6.03129e-07
5.83254e-07
5.6479e-07
5.47683e-07
5.31886e-07
5.17338e-07
5.03982e-07
4.91751e-07
4.80579e-07
4.70405e-07
4.61172e-07
4.52816e-07
4.45288e-07
4.38521e-07
4.32478e-07
4.271e-07
4.22352e-07
4.18185e-07
4.14562e-07
4.11453e-07
4.08828e-07
4.06659e-07
4.04921e-07
4.03592e-07
4.02652e-07
4.02085e-07
4.01875e-07
4.0201e-07
4.02481e-07
4.03279e-07
4.04397e-07
4.0583e-07
4.07575e-07
4.09632e-07
4.11998e-07
4.14677e-07
4.17671e-07
4.20984e-07
4.2462e-07
4.28588e-07
4.32892e-07
4.37541e-07
4.42544e-07
4.47919e-07
4.53678e-07
4.59835e-07
4.66405e-07
4.73401e-07
4.80839e-07
4.88734e-07
4.97102e-07
5.0596e-07
5.15321e-07
5.25204e-07
5.35619e-07
5.46583e-07
5.58107e-07
5.70199e-07
5.82868e-07
5.96118e-07
6.09946e-07
6.2435e-07
6.39316e-07
6.54825e-07
6.70849e-07
6.87351e-07
7.04283e-07
7.21579e-07
7.39162e-07
7.56922e-07
7.74751e-07
7.92494e-07
8.09996e-07
8.27063e-07
8.43486e-07
8.59056e-07
8.73535e-07
8.86688e-07
8.98278e-07
9.08037e-07
9.15749e-07
9.21105e-07
9.23815e-07
9.23716e-07
9.204e-07
9.13746e-07
9.03468e-07
8.89137e-07
7.68689e-07
7.50339e-07
7.28413e-07
7.05252e-07
6.81032e-07
6.56719e-07
6.32919e-07
6.0985e-07
5.87938e-07
5.67219e-07
5.47809e-07
5.29713e-07
5.12918e-07
4.97415e-07
4.83138e-07
4.7003e-07
4.58024e-07
4.47063e-07
4.37079e-07
4.2801e-07
4.19799e-07
4.12395e-07
4.05739e-07
3.99789e-07
3.94486e-07
3.89797e-07
3.85674e-07
3.82085e-07
3.78988e-07
3.76354e-07
3.74157e-07
3.72372e-07
3.70976e-07
3.69949e-07
3.69273e-07
3.68933e-07
3.68915e-07
3.69207e-07
3.698e-07
3.70687e-07
3.71862e-07
3.73319e-07
3.75055e-07
3.7707e-07
3.79362e-07
3.81933e-07
3.84784e-07
3.87918e-07
3.9134e-07
3.95054e-07
3.99066e-07
4.03383e-07
4.0801e-07
4.12958e-07
4.18243e-07
4.23875e-07
4.29866e-07
4.36228e-07
4.42971e-07
4.50109e-07
4.57653e-07
4.65616e-07
4.74009e-07
4.82844e-07
4.92131e-07
5.01878e-07
5.12095e-07
5.22786e-07
5.33955e-07
5.45603e-07
5.57726e-07
5.70316e-07
5.83359e-07
5.96837e-07
6.10722e-07
6.24977e-07
6.39559e-07
6.54414e-07
6.69468e-07
6.84645e-07
6.9983e-07
7.14921e-07
7.29766e-07
7.44223e-07
7.58114e-07
7.71252e-07
7.83458e-07
7.94532e-07
8.04279e-07
8.12514e-07
8.19022e-07
8.23648e-07
8.26184e-07
8.26413e-07
8.24224e-07
8.19257e-07
8.11471e-07
8.00609e-07
7.86234e-07
6.79171e-07
6.62026e-07
6.41882e-07
6.20833e-07
5.99099e-07
5.77468e-07
5.56495e-07
5.3633e-07
5.17339e-07
4.99522e-07
4.8295e-07
4.67616e-07
4.53466e-07
4.40485e-07
4.28601e-07
4.17754e-07
4.07875e-07
3.98909e-07
3.90791e-07
3.83464e-07
3.76875e-07
3.70979e-07
3.65724e-07
3.61073e-07
3.56974e-07
3.534e-07
3.50308e-07
3.47672e-07
3.45456e-07
3.43635e-07
3.42188e-07
3.41094e-07
3.40336e-07
3.39895e-07
3.39758e-07
3.39912e-07
3.40346e-07
3.41052e-07
3.42023e-07
3.43252e-07
3.44735e-07
3.4647e-07
3.48454e-07
3.50686e-07
3.53168e-07
3.559e-07
3.58885e-07
3.62125e-07
3.65625e-07
3.69388e-07
3.73421e-07
3.77728e-07
3.82314e-07
3.87193e-07
3.92376e-07
3.97872e-07
4.03689e-07
4.09837e-07
4.16325e-07
4.23163e-07
4.3036e-07
4.37922e-07
4.4586e-07
4.54178e-07
4.62884e-07
4.71981e-07
4.81472e-07
4.91356e-07
5.01632e-07
5.12293e-07
5.23329e-07
5.34726e-07
5.46464e-07
5.58516e-07
5.70849e-07
5.83421e-07
5.96181e-07
6.09072e-07
6.22018e-07
6.34943e-07
6.47732e-07
6.60289e-07
6.72472e-07
6.84152e-07
6.95173e-07
7.0537e-07
7.14595e-07
7.22682e-07
7.2948e-07
7.34847e-07
7.38615e-07
7.40715e-07
7.41014e-07
7.39323e-07
7.35587e-07
7.29495e-07
7.21054e-07
7.10056e-07
6.96023e-07
6.00889e-07
5.85101e-07
5.66823e-07
5.47888e-07
5.28554e-07
5.09454e-07
4.9109e-07
4.73564e-07
4.57184e-07
4.41926e-07
4.2783e-07
4.14878e-07
4.02993e-07
3.92156e-07
3.82294e-07
3.73345e-07
3.65246e-07
3.57942e-07
3.51375e-07
3.45492e-07
3.40245e-07
3.35595e-07
3.31496e-07
3.27916e-07
3.24809e-07
3.22152e-07
3.19909e-07
3.18057e-07
3.16566e-07
3.15415e-07
3.14586e-07
3.14062e-07
3.13828e-07
3.1387e-07
3.14177e-07
3.14738e-07
3.15545e-07
3.1659e-07
3.1787e-07
3.19378e-07
3.21113e-07
3.23073e-07
3.25255e-07
3.2766e-07
3.3029e-07
3.33146e-07
3.36229e-07
3.39543e-07
3.43091e-07
3.46877e-07
3.50905e-07
3.55179e-07
3.59706e-07
3.64498e-07
3.69563e-07
3.74908e-07
3.80539e-07
3.86463e-07
3.92687e-07
3.99217e-07
4.0606e-07
4.13219e-07
4.20698e-07
4.28501e-07
4.36628e-07
4.45079e-07
4.53852e-07
4.62941e-07
4.72338e-07
4.82032e-07
4.92007e-07
5.02243e-07
5.12713e-07
5.23387e-07
5.34225e-07
5.45182e-07
5.56203e-07
5.67231e-07
5.78188e-07
5.89e-07
5.99559e-07
6.09775e-07
6.1952e-07
6.28681e-07
6.37122e-07
6.44706e-07
6.51313e-07
6.56813e-07
6.61092e-07
6.64049e-07
6.6558e-07
6.65688e-07
6.64264e-07
6.6116e-07
6.56362e-07
6.49603e-07
6.40924e-07
6.30145e-07
6.16766e-07
5.32378e-07
5.18036e-07
5.01643e-07
4.84775e-07
4.67717e-07
4.50974e-07
4.34993e-07
4.19841e-07
4.05778e-07
3.92765e-07
3.80818e-07
3.69912e-07
3.59964e-07
3.50945e-07
3.42788e-07
3.35434e-07
3.28822e-07
3.22904e-07
3.17625e-07
3.12939e-07
3.08803e-07
3.05183e-07
3.02038e-07
2.99341e-07
2.97051e-07
2.95151e-07
2.93607e-07
2.92401e-07
2.91507e-07
2.90908e-07
2.90588e-07
2.90533e-07
2.9073e-07
2.91169e-07
2.9184e-07
2.92735e-07
2.93846e-07
2.95169e-07
2.96699e-07
2.98434e-07
3.00371e-07
3.02509e-07
3.04847e-07
3.07385e-07
3.10126e-07
3.1307e-07
3.1622e-07
3.19577e-07
3.23145e-07
3.26927e-07
3.30925e-07
3.35143e-07
3.3959e-07
3.44276e-07
3.49204e-07
3.5438e-07
3.59808e-07
3.65493e-07
3.71439e-07
3.77648e-07
3.84125e-07
3.90869e-07
3.97881e-07
4.0516e-07
4.12703e-07
4.20504e-07
4.28558e-07
4.36854e-07
4.45378e-07
4.54114e-07
4.63043e-07
4.72138e-07
4.8137e-07
4.90703e-07
5.00096e-07
5.09501e-07
5.18861e-07
5.28119e-07
5.37202e-07
5.46038e-07
5.54529e-07
5.62594e-07
5.70122e-07
5.77016e-07
5.83164e-07
5.88454e-07
5.92797e-07
5.96095e-07
5.98265e-07
5.99262e-07
5.99048e-07
5.97635e-07
5.94953e-07
5.90887e-07
5.85452e-07
5.78418e-07
5.69842e-07
5.59558e-07
5.47075e-07
4.7242e-07
4.5956e-07
4.45018e-07
4.30128e-07
4.15191e-07
4.00613e-07
3.86785e-07
3.73751e-07
3.61729e-07
3.50672e-07
3.40582e-07
3.31427e-07
3.2313e-07
3.1565e-07
3.08928e-07
3.0291e-07
2.97542e-07
2.92777e-07
2.88569e-07
2.84875e-07
2.8166e-07
2.78891e-07
2.76534e-07
2.74565e-07
2.7295e-07
2.71672e-07
2.70704e-07
2.70029e-07
2.69627e-07
2.69481e-07
2.69579e-07
2.69909e-07
2.7046e-07
2.71224e-07
2.72193e-07
2.73359e-07
2.74717e-07
2.76264e-07
2.77995e-07
2.79909e-07
2.82005e-07
2.8428e-07
2.86736e-07
2.89372e-07
2.9219e-07
2.95191e-07
2.98376e-07
3.01748e-07
3.05309e-07
3.0906e-07
3.13003e-07
3.17143e-07
3.21489e-07
3.26046e-07
3.30816e-07
3.35803e-07
3.41008e-07
3.46434e-07
3.52083e-07
3.57954e-07
3.64047e-07
3.70361e-07
3.76891e-07
3.83632e-07
3.90579e-07
3.97722e-07
4.05049e-07
4.12547e-07
4.20197e-07
4.27981e-07
4.35874e-07
4.43846e-07
4.51865e-07
4.59894e-07
4.67889e-07
4.75803e-07
4.83579e-07
4.91164e-07
4.98489e-07
5.0549e-07
5.12079e-07
5.18188e-07
5.23722e-07
5.28604e-07
5.32745e-07
5.36059e-07
5.38482e-07
5.39948e-07
5.40416e-07
5.39901e-07
5.38375e-07
5.35868e-07
5.32342e-07
5.27707e-07
5.21996e-07
5.15009e-07
5.06806e-07
4.97214e-07
4.85805e-07
4.19973e-07
4.08587e-07
3.95817e-07
3.82784e-07
3.69796e-07
3.57181e-07
3.45277e-07
3.34117e-07
3.2388e-07
3.1452e-07
3.06026e-07
2.98363e-07
2.91469e-07
2.85288e-07
2.79773e-07
2.74874e-07
2.70543e-07
2.66738e-07
2.63419e-07
2.60549e-07
2.58094e-07
2.56029e-07
2.54322e-07
2.52954e-07
2.51894e-07
2.51129e-07
2.50634e-07
2.50396e-07
2.50397e-07
2.50622e-07
2.51063e-07
2.51707e-07
2.52547e-07
2.53574e-07
2.54783e-07
2.56168e-07
2.57724e-07
2.59448e-07
2.61338e-07
2.6339e-07
2.65606e-07
2.67983e-07
2.70521e-07
2.73222e-07
2.76086e-07
2.79114e-07
2.82306e-07
2.85665e-07
2.89191e-07
2.92885e-07
2.96748e-07
3.00787e-07
3.05008e-07
3.09413e-07
3.14003e-07
3.18777e-07
3.23738e-07
3.28884e-07
3.34214e-07
3.39726e-07
3.45416e-07
3.51279e-07
3.57308e-07
3.63495e-07
3.69831e-07
3.76301e-07
3.82891e-07
3.89585e-07
3.9636e-07
4.03194e-07
4.1006e-07
4.16927e-07
4.23761e-07
4.30523e-07
4.37172e-07
4.43661e-07
4.49938e-07
4.55953e-07
4.61645e-07
4.6696e-07
4.71821e-07
4.76176e-07
4.79947e-07
4.83076e-07
4.85498e-07
4.87148e-07
4.8799e-07
4.8799e-07
4.87167e-07
4.85535e-07
4.83085e-07
4.79864e-07
4.75852e-07
4.70982e-07
4.65291e-07
4.58605e-07
4.50977e-07
4.42225e-07
4.31981e-07
3.74131e-07
3.64173e-07
3.53063e-07
3.41744e-07
3.30523e-07
3.19665e-07
3.09466e-07
2.9995e-07
2.91265e-07
2.83368e-07
2.76241e-07
2.69849e-07
2.64141e-07
2.59054e-07
2.54551e-07
2.50588e-07
2.47121e-07
2.44115e-07
2.41534e-07
2.39345e-07
2.37519e-07
2.36035e-07
2.34864e-07
2.3399e-07
2.33387e-07
2.33042e-07
2.32936e-07
2.33055e-07
2.33385e-07
2.33914e-07
2.34632e-07
2.35531e-07
2.36603e-07
2.37843e-07
2.39244e-07
2.40801e-07
2.42512e-07
2.44373e-07
2.46381e-07
2.48536e-07
2.50837e-07
2.53283e-07
2.55873e-07
2.58608e-07
2.61488e-07
2.64514e-07
2.67686e-07
2.71004e-07
2.74468e-07
2.78079e-07
2.81838e-07
2.85753e-07
2.89825e-07
2.94053e-07
2.98437e-07
3.02976e-07
3.07668e-07
3.12509e-07
3.17497e-07
3.22627e-07
3.27891e-07
3.33282e-07
3.38791e-07
3.44405e-07
3.50112e-07
3.55896e-07
3.61739e-07
3.67622e-07
3.7352e-07
3.7941e-07
3.85263e-07
3.91047e-07
3.96727e-07
4.02269e-07
4.07632e-07
4.12772e-07
4.17643e-07
4.22203e-07
4.26399e-07
4.3019e-07
4.3351e-07
4.36322e-07
4.38567e-07
4.40207e-07
4.41195e-07
4.4149e-07
4.41081e-07
4.39994e-07
4.38238e-07
4.35843e-07
4.32814e-07
4.29205e-07
4.2501e-07
4.20175e-07
4.14737e-07
4.0854e-07
4.01624e-07
3.93806e-07
3.84755e-07
3.34091e-07
3.25486e-07
3.15904e-07
3.06144e-07
2.96503e-07
2.87205e-07
2.78503e-07
2.70418e-07
2.63075e-07
2.56432e-07
2.50471e-07
2.45158e-07
2.40449e-07
2.36283e-07
2.32627e-07
2.29444e-07
2.26697e-07
2.24354e-07
2.22384e-07
2.20759e-07
2.19453e-07
2.18447e-07
2.17717e-07
2.17249e-07
2.1702e-07
2.17019e-07
2.17228e-07
2.17639e-07
2.18236e-07
2.19009e-07
2.1995e-07
2.21053e-07
2.2231e-07
2.23716e-07
2.25267e-07
2.26957e-07
2.28784e-07
2.30746e-07
2.32839e-07
2.35064e-07
2.37418e-07
2.39902e-07
2.42514e-07
2.45254e-07
2.48123e-07
2.51119e-07
2.54244e-07
2.57494e-07
2.60871e-07
2.64373e-07
2.68005e-07
2.7177e-07
2.75667e-07
2.79693e-07
2.83847e-07
2.88124e-07
2.92522e-07
2.97034e-07
3.01656e-07
3.06379e-07
3.11194e-07
3.16092e-07
3.21059e-07
3.26082e-07
3.31145e-07
3.36231e-07
3.41319e-07
3.46388e-07
3.51413e-07
3.5637e-07
3.61229e-07
3.65959e-07
3.7053e-07
3.74907e-07
3.79054e-07
3.82935e-07
3.86509e-07
3.89743e-07
3.92594e-07
3.95033e-07
3.97009e-07
3.98499e-07
3.99463e-07
3.99876e-07
3.99714e-07
3.98954e-07
3.97643e-07
3.95792e-07
3.93425e-07
3.90576e-07
3.87262e-07
3.83537e-07
3.79402e-07
3.74812e-07
3.69797e-07
3.64216e-07
3.58093e-07
3.51247e-07
3.43371e-07
2.99134e-07
2.91792e-07
2.83592e-07
2.7523e-07
2.66989e-07
2.5906e-07
2.51664e-07
2.44818e-07
2.38628e-07
2.33057e-07
2.28086e-07
2.23685e-07
2.19816e-07
2.16422e-07
2.13475e-07
2.10943e-07
2.08794e-07
2.07e-07
2.05535e-07
2.04374e-07
2.03496e-07
2.02883e-07
2.02514e-07
2.02377e-07
2.02453e-07
2.02731e-07
2.03197e-07
2.03841e-07
2.04652e-07
2.05619e-07
2.06738e-07
2.08e-07
2.09401e-07
2.10934e-07
2.12596e-07
2.14384e-07
2.16294e-07
2.18323e-07
2.20471e-07
2.22734e-07
2.25113e-07
2.27606e-07
2.30212e-07
2.32931e-07
2.35761e-07
2.38701e-07
2.41751e-07
2.44908e-07
2.4817e-07
2.51541e-07
2.55021e-07
2.5861e-07
2.62306e-07
2.66105e-07
2.70002e-07
2.73993e-07
2.78071e-07
2.82229e-07
2.8646e-07
2.90753e-07
2.95097e-07
2.9948e-07
3.03888e-07
3.08304e-07
3.12711e-07
3.1709e-07
3.21421e-07
3.25679e-07
3.29842e-07
3.33885e-07
3.3778e-07
3.415e-07
3.45015e-07
3.48297e-07
3.51316e-07
3.54041e-07
3.56441e-07
3.58492e-07
3.60163e-07
3.61436e-07
3.62275e-07
3.6267e-07
3.62595e-07
3.62043e-07
3.61002e-07
3.59507e-07
3.57588e-07
3.55263e-07
3.52562e-07
3.49522e-07
3.46164e-07
3.42539e-07
3.38649e-07
3.34453e-07
3.29973e-07
3.25082e-07
3.19783e-07
3.13902e-07
3.07148e-07
2.68627e-07
2.62436e-07
2.5547e-07
2.48348e-07
2.41335e-07
2.346e-07
2.28333e-07
2.22554e-07
2.17349e-07
2.1269e-07
2.08557e-07
2.04925e-07
2.0176e-07
1.99014e-07
1.96657e-07
1.94666e-07
1.93013e-07
1.91673e-07
1.90625e-07
1.89846e-07
1.89318e-07
1.89025e-07
1.88951e-07
1.89083e-07
1.89404e-07
1.89906e-07
1.90576e-07
1.91406e-07
1.92385e-07
1.93505e-07
1.9476e-07
1.96143e-07
1.9765e-07
1.99276e-07
2.01017e-07
2.0287e-07
2.04831e-07
2.06899e-07
2.09071e-07
2.11346e-07
2.13722e-07
2.16197e-07
2.1877e-07
2.2144e-07
2.24206e-07
2.27064e-07
2.30013e-07
2.3305e-07
2.36175e-07
2.39389e-07
2.42692e-07
2.4608e-07
2.4955e-07
2.53095e-07
2.56711e-07
2.60389e-07
2.64123e-07
2.67904e-07
2.7172e-07
2.75562e-07
2.79415e-07
2.83267e-07
2.871e-07
2.90898e-07
2.94642e-07
2.98314e-07
3.01891e-07
3.05352e-07
3.08674e-07
3.11834e-07
3.14809e-07
3.17572e-07
3.20102e-07
3.22374e-07
3.24366e-07
3.26055e-07
3.2742e-07
3.28446e-07
3.29113e-07
3.29415e-07
3.29328e-07
3.28855e-07
3.27982e-07
3.26713e-07
3.25084e-07
3.23121e-07
3.20852e-07
3.183e-07
3.15496e-07
3.12477e-07
3.09262e-07
3.05896e-07
3.02381e-07
2.98677e-07
2.94795e-07
2.9062e-07
2.86138e-07
2.81181e-07
2.75471e-07
2.42004e-07
2.36839e-07
2.30962e-07
2.24927e-07
2.18984e-07
2.13282e-07
2.07987e-07
2.0312e-07
1.98755e-07
1.94868e-07
1.91443e-07
1.88456e-07
1.85878e-07
1.83676e-07
1.81811e-07
1.80267e-07
1.79023e-07
1.78058e-07
1.77351e-07
1.76884e-07
1.76641e-07
1.76609e-07
1.76771e-07
1.77118e-07
1.77636e-07
1.78315e-07
1.79146e-07
1.80119e-07
1.81227e-07
1.82461e-07
1.83816e-07
1.85286e-07
1.86867e-07
1.88554e-07
1.90344e-07
1.92233e-07
1.94218e-07
1.96296e-07
1.98466e-07
2.00725e-07
2.03072e-07
2.05504e-07
2.08019e-07
2.10615e-07
2.1329e-07
2.16041e-07
2.18864e-07
2.21756e-07
2.2472e-07
2.27755e-07
2.30855e-07
2.34017e-07
2.37235e-07
2.40503e-07
2.43812e-07
2.47155e-07
2.50523e-07
2.53903e-07
2.57286e-07
2.60658e-07
2.64005e-07
2.67312e-07
2.70562e-07
2.73737e-07
2.76821e-07
2.79792e-07
2.82632e-07
2.85319e-07
2.87834e-07
2.90157e-07
2.92267e-07
2.94146e-07
2.95775e-07
2.97139e-07
2.98222e-07
2.9901e-07
2.99491e-07
2.99659e-07
2.99507e-07
2.99036e-07
2.98235e-07
2.97115e-07
2.95672e-07
2.93943e-07
2.91971e-07
2.89769e-07
2.87367e-07
2.8479e-07
2.82067e-07
2.79229e-07
2.76293e-07
2.73296e-07
2.70236e-07
2.67074e-07
2.63811e-07
2.60342e-07
2.56639e-07
2.5254e-07
2.47783e-07
2.18754e-07
2.14491e-07
2.09564e-07
2.04475e-07
1.99456e-07
1.94642e-07
1.9018e-07
1.8609e-07
1.82437e-07
1.79202e-07
1.76372e-07
1.73925e-07
1.71838e-07
1.70086e-07
1.68629e-07
1.67456e-07
1.66548e-07
1.65888e-07
1.6546e-07
1.65246e-07
1.65233e-07
1.65409e-07
1.6576e-07
1.66277e-07
1.66947e-07
1.67763e-07
1.68715e-07
1.69797e-07
1.70998e-07
1.72313e-07
1.73737e-07
1.75264e-07
1.76889e-07
1.78609e-07
1.8042e-07
1.82318e-07
1.843e-07
1.86363e-07
1.88506e-07
1.90724e-07
1.93017e-07
1.9538e-07
1.97812e-07
2.0031e-07
2.0287e-07
2.05488e-07
2.0816e-07
2.10887e-07
2.13668e-07
2.16498e-07
2.19372e-07
2.22285e-07
2.25228e-07
2.28195e-07
2.31176e-07
2.34163e-07
2.37143e-07
2.40107e-07
2.4304e-07
2.45929e-07
2.4876e-07
2.51517e-07
2.54183e-07
2.56741e-07
2.59175e-07
2.61465e-07
2.63594e-07
2.65546e-07
2.67302e-07
2.68847e-07
2.70166e-07
2.71247e-07
2.72077e-07
2.72649e-07
2.72954e-07
2.72987e-07
2.72744e-07
2.72229e-07
2.71443e-07
2.70396e-07
2.69084e-07
2.67527e-07
2.65736e-07
2.63774e-07
2.61659e-07
2.59408e-07
2.57049e-07
2.54603e-07
2.52095e-07
2.4955e-07
2.46981e-07
2.44416e-07
2.41849e-07
2.39242e-07
2.36588e-07
2.33787e-07
2.30805e-07
2.27484e-07
2.23581e-07
1.98424e-07
1.94942e-07
1.90837e-07
1.86565e-07
1.82339e-07
1.78286e-07
1.74531e-07
1.71101e-07
1.6805e-07
1.65363e-07
1.63031e-07
1.61036e-07
1.59357e-07
1.57975e-07
1.56856e-07
1.55986e-07
1.55353e-07
1.54942e-07
1.54738e-07
1.54727e-07
1.54897e-07
1.55237e-07
1.55735e-07
1.56382e-07
1.57168e-07
1.58086e-07
1.59126e-07
1.60282e-07
1.61547e-07
1.62914e-07
1.64377e-07
1.65933e-07
1.67576e-07
1.69303e-07
1.71109e-07
1.72991e-07
1.74946e-07
1.7697e-07
1.79061e-07
1.81215e-07
1.83429e-07
1.85701e-07
1.88026e-07
1.90402e-07
1.92823e-07
1.95284e-07
1.97786e-07
2.00326e-07
2.02901e-07
2.05504e-07
2.0813e-07
2.10771e-07
2.13419e-07
2.16065e-07
2.187e-07
2.21313e-07
2.23892e-07
2.26425e-07
2.28899e-07
2.313e-07
2.33613e-07
2.35822e-07
2.37914e-07
2.39871e-07
2.41677e-07
2.43318e-07
2.44779e-07
2.46046e-07
2.47106e-07
2.47949e-07
2.48566e-07
2.4895e-07
2.49096e-07
2.49004e-07
2.48672e-07
2.48103e-07
2.47302e-07
2.46278e-07
2.4504e-07
2.43602e-07
2.41968e-07
2.40161e-07
2.38234e-07
2.36215e-07
2.34122e-07
2.3197e-07
2.29782e-07
2.27577e-07
2.25374e-07
2.23191e-07
2.21036e-07
2.18929e-07
2.1686e-07
2.14792e-07
2.12711e-07
2.10525e-07
2.08192e-07
2.05563e-07
2.0241e-07
1.80612e-07
1.77802e-07
1.74402e-07
1.7083e-07
1.67281e-07
1.63874e-07
1.60721e-07
1.57847e-07
1.55301e-07
1.53074e-07
1.51157e-07
1.49536e-07
1.48195e-07
1.47116e-07
1.46275e-07
1.45654e-07
1.45243e-07
1.45031e-07
1.45006e-07
1.45155e-07
1.45466e-07
1.45932e-07
1.4654e-07
1.47284e-07
1.48153e-07
1.49141e-07
1.50239e-07
1.51442e-07
1.52743e-07
1.54134e-07
1.55613e-07
1.57172e-07
1.58808e-07
1.60518e-07
1.62295e-07
1.64138e-07
1.66042e-07
1.68004e-07
1.70021e-07
1.72087e-07
1.74202e-07
1.76359e-07
1.78555e-07
1.80785e-07
1.83045e-07
1.85331e-07
1.87642e-07
1.89975e-07
1.92323e-07
1.9468e-07
1.97038e-07
1.99389e-07
2.01725e-07
2.04035e-07
2.06309e-07
2.08537e-07
2.10705e-07
2.12802e-07
2.14815e-07
2.1673e-07
2.18533e-07
2.20209e-07
2.21746e-07
2.23129e-07
2.24346e-07
2.25383e-07
2.26231e-07
2.2688e-07
2.27322e-07
2.27552e-07
2.27568e-07