/*--------------------------------*- C++ -*----------------------------------*\
| =========                 |                                                 |
| \\      /  F ield         | OpenFOAM: The Open Source CFD Toolbox           |
|  \\    /   O peration     | Version:  2306                                  |
|   \\  /    A nd           | Website:  www.openfoam.com                      |
|    \\/     M anipulation  |                                                 |
\*---------------------------------------------------------------------------*/
// * * * * * * * * * * * * * * * * * * * * * * * * * * * * * * * * * * * * * //
FoamFile
{
    version         2;
    format          ascii;
    class           volScalarField;
    location        "7258.82999998519063";
    object          k;
}

dimensions      [ 0 2 -2 0 0 0 0 ];

internalField   nonuniform List<scalar> 
14751
(
2.64957e-05
2.62739e-05
2.60916e-05
2.5813e-05
2.55248e-05
2.51886e-05
2.48254e-05
2.44393e-05
2.40325e-05
2.36185e-05
2.32017e-05
2.27893e-05
2.23842e-05
2.19896e-05
2.1609e-05
2.12448e-05
2.08994e-05
2.0574e-05
2.02697e-05
1.99871e-05
1.97264e-05
1.94871e-05
1.92689e-05
1.90708e-05
1.88927e-05
1.87329e-05
1.85912e-05
1.84658e-05
1.83566e-05
1.82623e-05
1.81821e-05
1.81151e-05
1.80604e-05
1.80174e-05
1.79851e-05
1.79632e-05
1.79512e-05
1.79481e-05
1.79536e-05
1.79674e-05
1.79895e-05
1.80187e-05
1.80546e-05
1.80967e-05
1.81446e-05
1.81986e-05
1.82583e-05
1.83238e-05
1.83946e-05
1.84709e-05
1.85523e-05
1.86388e-05
1.87302e-05
1.88265e-05
1.89282e-05
1.9035e-05
1.9147e-05
1.92641e-05
1.93865e-05
1.95139e-05
1.9646e-05
1.97832e-05
1.99256e-05
2.00742e-05
2.02289e-05
2.03895e-05
2.05561e-05
2.0729e-05
2.09086e-05
2.10945e-05
2.12868e-05
2.14856e-05
2.16908e-05
2.19024e-05
2.21204e-05
2.23452e-05
2.25768e-05
2.28149e-05
2.30592e-05
2.3308e-05
2.35619e-05
2.38191e-05
2.40803e-05
2.43425e-05
2.46053e-05
2.48672e-05
2.51256e-05
2.53788e-05
2.56233e-05
2.58551e-05
2.60721e-05
2.62636e-05
2.64301e-05
2.65613e-05
2.66547e-05
2.67036e-05
2.67125e-05
2.66479e-05
2.65982e-05
2.60019e-05
2.58018e-05
2.5618e-05
2.53683e-05
2.51032e-05
2.48038e-05
2.44807e-05
2.41398e-05
2.37826e-05
2.34193e-05
2.30542e-05
2.26925e-05
2.23368e-05
2.19895e-05
2.16534e-05
2.13307e-05
2.10234e-05
2.07325e-05
2.04591e-05
2.02039e-05
1.99671e-05
1.97485e-05
1.95481e-05
1.9365e-05
1.91993e-05
1.90497e-05
1.89161e-05
1.87972e-05
1.86928e-05
1.86019e-05
1.85238e-05
1.84579e-05
1.84033e-05
1.83596e-05
1.83259e-05
1.83019e-05
1.82872e-05
1.8281e-05
1.82829e-05
1.82927e-05
1.83102e-05
1.83347e-05
1.83658e-05
1.8403e-05
1.84461e-05
1.84951e-05
1.85497e-05
1.861e-05
1.86757e-05
1.87467e-05
1.88229e-05
1.89042e-05
1.89904e-05
1.90816e-05
1.9178e-05
1.92795e-05
1.93862e-05
1.9498e-05
1.9615e-05
1.9737e-05
1.98639e-05
1.99958e-05
2.01329e-05
2.02758e-05
2.04245e-05
2.05789e-05
2.07388e-05
2.09047e-05
2.10767e-05
2.12545e-05
2.14382e-05
2.16276e-05
2.18228e-05
2.20237e-05
2.22299e-05
2.24419e-05
2.26593e-05
2.28819e-05
2.31092e-05
2.33397e-05
2.35737e-05
2.38095e-05
2.40472e-05
2.42844e-05
2.45201e-05
2.47529e-05
2.49803e-05
2.52005e-05
2.54104e-05
2.56064e-05
2.57864e-05
2.59424e-05
2.60731e-05
2.61722e-05
2.62358e-05
2.62612e-05
2.62484e-05
2.61807e-05
2.61088e-05
2.57094e-05
2.55112e-05
2.53148e-05
2.50734e-05
2.48131e-05
2.45292e-05
2.42249e-05
2.39073e-05
2.35779e-05
2.32446e-05
2.29118e-05
2.25834e-05
2.22618e-05
2.19485e-05
2.1646e-05
2.13559e-05
2.10798e-05
2.08185e-05
2.05729e-05
2.03434e-05
2.01303e-05
1.99333e-05
1.97525e-05
1.95872e-05
1.94373e-05
1.93019e-05
1.91809e-05
1.9073e-05
1.89782e-05
1.88957e-05
1.88248e-05
1.87651e-05
1.87158e-05
1.86764e-05
1.86463e-05
1.86252e-05
1.86127e-05
1.86081e-05
1.86112e-05
1.86217e-05
1.86393e-05
1.86637e-05
1.86943e-05
1.8731e-05
1.87734e-05
1.88216e-05
1.88753e-05
1.89345e-05
1.8999e-05
1.90687e-05
1.91435e-05
1.92234e-05
1.93081e-05
1.93979e-05
1.94927e-05
1.95926e-05
1.96976e-05
1.98077e-05
1.9923e-05
2.00433e-05
2.01684e-05
2.02987e-05
2.0434e-05
2.05748e-05
2.07211e-05
2.08729e-05
2.103e-05
2.11927e-05
2.1361e-05
2.15346e-05
2.17136e-05
2.18979e-05
2.20873e-05
2.22816e-05
2.24806e-05
2.26841e-05
2.28922e-05
2.3104e-05
2.33193e-05
2.35367e-05
2.3756e-05
2.39758e-05
2.41954e-05
2.44131e-05
2.46273e-05
2.48366e-05
2.50387e-05
2.52315e-05
2.54123e-05
2.55778e-05
2.57257e-05
2.585e-05
2.59481e-05
2.60165e-05
2.60502e-05
2.60493e-05
2.60109e-05
2.59288e-05
2.58298e-05
2.54509e-05
2.52445e-05
2.50309e-05
2.47873e-05
2.45241e-05
2.4246e-05
2.39511e-05
2.36473e-05
2.33361e-05
2.30237e-05
2.27146e-05
2.2412e-05
2.21177e-05
2.1833e-05
2.15594e-05
2.12983e-05
2.10508e-05
2.08175e-05
2.05988e-05
2.03951e-05
2.02064e-05
2.00325e-05
1.98733e-05
1.97282e-05
1.9597e-05
1.94789e-05
1.93737e-05
1.92805e-05
1.9199e-05
1.91286e-05
1.90689e-05
1.90192e-05
1.8979e-05
1.89479e-05
1.89253e-05
1.89109e-05
1.89044e-05
1.89053e-05
1.89132e-05
1.89281e-05
1.89495e-05
1.89773e-05
1.90111e-05
1.90507e-05
1.90958e-05
1.91464e-05
1.92024e-05
1.92636e-05
1.93299e-05
1.94014e-05
1.94778e-05
1.95591e-05
1.96453e-05
1.97363e-05
1.98322e-05
1.99332e-05
2.00391e-05
2.015e-05
2.02659e-05
2.03867e-05
2.05124e-05
2.0643e-05
2.07785e-05
2.09192e-05
2.10651e-05
2.12161e-05
2.13721e-05
2.15332e-05
2.16994e-05
2.18705e-05
2.20463e-05
2.22266e-05
2.24114e-05
2.26002e-05
2.27928e-05
2.29889e-05
2.31882e-05
2.33901e-05
2.3594e-05
2.37986e-05
2.40036e-05
2.42073e-05
2.4409e-05
2.4607e-05
2.47995e-05
2.49851e-05
2.51614e-05
2.53264e-05
2.54776e-05
2.56119e-05
2.57271e-05
2.58186e-05
2.58831e-05
2.59188e-05
2.59204e-05
2.58897e-05
2.58226e-05
2.57187e-05
2.55905e-05
2.5166e-05
2.49465e-05
2.47152e-05
2.44649e-05
2.41961e-05
2.39195e-05
2.36304e-05
2.33371e-05
2.30402e-05
2.27451e-05
2.24562e-05
2.21763e-05
2.19066e-05
2.1648e-05
2.14015e-05
2.11679e-05
2.0948e-05
2.07419e-05
2.055e-05
2.03722e-05
2.02086e-05
2.00587e-05
1.99223e-05
1.97987e-05
1.96879e-05
1.9589e-05
1.95017e-05
1.94254e-05
1.93595e-05
1.93038e-05
1.92575e-05
1.92204e-05
1.91919e-05
1.91716e-05
1.9159e-05
1.91539e-05
1.9156e-05
1.91648e-05
1.91802e-05
1.92019e-05
1.92297e-05
1.92634e-05
1.93027e-05
1.93476e-05
1.93976e-05
1.94529e-05
1.95133e-05
1.95786e-05
1.96489e-05
1.97241e-05
1.98041e-05
1.98888e-05
1.99781e-05
2.00721e-05
2.01709e-05
2.02744e-05
2.03827e-05
2.04958e-05
2.06137e-05
2.07364e-05
2.08637e-05
2.09956e-05
2.11323e-05
2.12737e-05
2.14199e-05
2.15707e-05
2.17261e-05
2.1886e-05
2.20504e-05
2.22189e-05
2.23915e-05
2.25678e-05
2.27476e-05
2.29305e-05
2.31161e-05
2.33039e-05
2.34937e-05
2.36845e-05
2.38759e-05
2.40664e-05
2.42555e-05
2.44417e-05
2.46238e-05
2.48002e-05
2.49692e-05
2.51291e-05
2.52779e-05
2.54133e-05
2.55332e-05
2.56349e-05
2.57161e-05
2.57733e-05
2.5803e-05
2.58048e-05
2.5773e-05
2.57109e-05
2.56135e-05
2.54842e-05
2.53273e-05
2.48357e-05
2.4602e-05
2.43547e-05
2.40966e-05
2.38225e-05
2.35465e-05
2.32626e-05
2.29791e-05
2.2696e-05
2.24174e-05
2.21479e-05
2.18896e-05
2.16437e-05
2.14103e-05
2.11901e-05
2.09833e-05
2.07904e-05
2.06113e-05
2.04459e-05
2.0294e-05
2.01555e-05
2.00298e-05
1.99167e-05
1.98153e-05
1.97256e-05
1.96468e-05
1.95784e-05
1.95199e-05
1.94709e-05
1.94309e-05
1.93995e-05
1.93763e-05
1.93609e-05
1.93528e-05
1.93517e-05
1.93574e-05
1.93695e-05
1.93878e-05
1.94121e-05
1.94421e-05
1.94778e-05
1.95189e-05
1.95653e-05
1.96167e-05
1.96731e-05
1.97344e-05
1.98005e-05
1.98713e-05
1.99468e-05
2.00268e-05
2.01115e-05
2.02006e-05
2.02942e-05
2.03922e-05
2.04945e-05
2.06015e-05
2.07129e-05
2.08289e-05
2.09494e-05
2.10743e-05
2.12036e-05
2.13372e-05
2.14751e-05
2.16174e-05
2.17638e-05
2.19143e-05
2.20688e-05
2.22271e-05
2.23891e-05
2.25546e-05
2.27231e-05
2.28945e-05
2.30683e-05
2.32441e-05
2.34214e-05
2.35995e-05
2.37782e-05
2.39564e-05
2.41334e-05
2.43079e-05
2.44793e-05
2.46458e-05
2.48063e-05
2.49591e-05
2.51024e-05
2.52348e-05
2.53541e-05
2.54583e-05
2.55455e-05
2.56133e-05
2.56597e-05
2.56819e-05
2.56766e-05
2.5644e-05
2.55791e-05
2.54854e-05
2.53582e-05
2.52025e-05
2.5019e-05
2.44579e-05
2.42112e-05
2.3951e-05
2.36863e-05
2.34091e-05
2.31348e-05
2.28573e-05
2.25844e-05
2.23159e-05
2.20548e-05
2.1805e-05
2.15685e-05
2.13462e-05
2.11378e-05
2.09434e-05
2.07631e-05
2.05967e-05
2.0444e-05
2.03046e-05
2.01782e-05
2.00645e-05
1.99628e-05
1.98727e-05
1.97935e-05
1.97248e-05
1.96661e-05
1.96168e-05
1.95765e-05
1.95446e-05
1.95209e-05
1.95048e-05
1.9496e-05
1.94942e-05
1.94989e-05
1.951e-05
1.95271e-05
1.95501e-05
1.95786e-05
1.96125e-05
1.96517e-05
1.96959e-05
1.97452e-05
1.97994e-05
1.98582e-05
1.99217e-05
1.99897e-05
2.00621e-05
2.0139e-05
2.02202e-05
2.03057e-05
2.03956e-05
2.04896e-05
2.05878e-05
2.069e-05
2.07964e-05
2.0907e-05
2.10217e-05
2.11407e-05
2.12638e-05
2.1391e-05
2.15222e-05
2.16572e-05
2.1796e-05
2.19385e-05
2.20847e-05
2.22343e-05
2.23872e-05
2.25431e-05
2.27018e-05
2.28631e-05
2.30265e-05
2.31917e-05
2.33581e-05
2.35253e-05
2.36926e-05
2.38594e-05
2.40252e-05
2.41888e-05
2.43497e-05
2.45062e-05
2.46577e-05
2.48025e-05
2.49394e-05
2.50667e-05
2.51826e-05
2.52857e-05
2.53741e-05
2.54459e-05
2.54995e-05
2.55328e-05
2.55443e-05
2.55316e-05
2.54918e-05
2.54258e-05
2.53289e-05
2.52049e-05
2.50496e-05
2.48687e-05
2.46618e-05
2.40372e-05
2.37803e-05
2.35112e-05
2.32425e-05
2.29654e-05
2.26952e-05
2.24264e-05
2.21657e-05
2.19133e-05
2.1671e-05
2.14419e-05
2.12278e-05
2.10293e-05
2.08458e-05
2.0677e-05
2.05226e-05
2.03821e-05
2.02551e-05
2.01411e-05
2.00394e-05
1.99497e-05
1.98712e-05
1.98035e-05
1.97458e-05
1.96977e-05
1.96586e-05
1.9628e-05
1.96055e-05
1.95905e-05
1.95828e-05
1.95819e-05
1.95876e-05
1.95994e-05
1.96171e-05
1.96404e-05
1.96691e-05
1.9703e-05
1.97419e-05
1.97857e-05
1.98342e-05
1.98874e-05
1.99452e-05
2.00073e-05
2.00738e-05
2.01446e-05
2.02195e-05
2.02985e-05
2.03816e-05
2.04688e-05
2.05599e-05
2.0655e-05
2.07539e-05
2.08567e-05
2.09632e-05
2.10735e-05
2.11875e-05
2.13054e-05
2.14271e-05
2.15525e-05
2.16815e-05
2.1814e-05
2.19499e-05
2.20889e-05
2.22311e-05
2.23761e-05
2.25239e-05
2.26741e-05
2.28265e-05
2.29808e-05
2.31366e-05
2.32935e-05
2.3451e-05
2.36085e-05
2.37653e-05
2.3921e-05
2.40746e-05
2.42256e-05
2.43729e-05
2.45156e-05
2.46522e-05
2.4782e-05
2.49033e-05
2.50147e-05
2.51149e-05
2.52019e-05
2.52745e-05
2.5331e-05
2.53698e-05
2.53895e-05
2.53885e-05
2.53655e-05
2.53188e-05
2.5246e-05
2.51482e-05
2.50216e-05
2.48697e-05
2.4689e-05
2.44855e-05
2.42593e-05
2.35812e-05
2.33178e-05
2.30442e-05
2.27751e-05
2.25017e-05
2.22387e-05
2.19812e-05
2.1735e-05
2.15002e-05
2.12782e-05
2.10709e-05
2.08797e-05
2.07052e-05
2.05465e-05
2.04028e-05
2.02736e-05
2.01583e-05
2.00561e-05
1.99663e-05
1.98883e-05
1.98215e-05
1.97652e-05
1.97188e-05
1.96817e-05
1.96532e-05
1.9633e-05
1.96203e-05
1.96149e-05
1.96162e-05
1.9624e-05
1.96378e-05
1.96574e-05
1.96825e-05
1.97128e-05
1.97481e-05
1.97882e-05
1.98329e-05
1.98821e-05
1.99356e-05
1.99934e-05
2.00554e-05
2.01215e-05
2.01916e-05
2.02657e-05
2.03437e-05
2.04254e-05
2.05109e-05
2.06001e-05
2.0693e-05
2.07895e-05
2.08896e-05
2.09933e-05
2.11003e-05
2.12108e-05
2.13245e-05
2.14417e-05
2.15622e-05
2.16861e-05
2.18131e-05
2.19433e-05
2.20764e-05
2.22123e-05
2.23507e-05
2.24914e-05
2.26344e-05
2.27792e-05
2.29256e-05
2.30732e-05
2.32217e-05
2.33706e-05
2.35194e-05
2.36675e-05
2.38144e-05
2.39593e-05
2.41014e-05
2.42401e-05
2.43745e-05
2.45034e-05
2.46262e-05
2.47411e-05
2.48475e-05
2.49436e-05
2.50281e-05
2.50998e-05
2.51569e-05
2.51983e-05
2.52224e-05
2.52281e-05
2.52143e-05
2.51796e-05
2.51234e-05
2.50444e-05
2.49407e-05
2.48136e-05
2.46602e-05
2.44836e-05
2.42813e-05
2.40592e-05
2.38178e-05
2.30984e-05
2.28328e-05
2.25594e-05
2.22938e-05
2.2028e-05
2.17753e-05
2.15318e-05
2.13023e-05
2.10869e-05
2.08861e-05
2.07016e-05
2.05337e-05
2.03832e-05
2.02488e-05
2.01296e-05
2.00248e-05
1.99334e-05
1.98548e-05
1.97881e-05
1.97325e-05
1.96873e-05
1.96519e-05
1.96257e-05
1.96078e-05
1.95979e-05
1.95954e-05
1.95997e-05
1.96104e-05
1.96271e-05
1.96496e-05
1.96774e-05
1.97103e-05
1.97481e-05
1.97904e-05
1.98372e-05
1.98882e-05
1.99433e-05
2.00023e-05
2.00653e-05
2.0132e-05
2.02025e-05
2.02767e-05
2.03545e-05
2.04358e-05
2.05206e-05
2.06088e-05
2.07004e-05
2.07954e-05
2.08937e-05
2.09952e-05
2.10999e-05
2.12078e-05
2.13186e-05
2.14324e-05
2.1549e-05
2.16687e-05
2.17912e-05
2.19165e-05
2.20445e-05
2.21749e-05
2.23077e-05
2.24426e-05
2.25792e-05
2.27175e-05
2.28571e-05
2.29977e-05
2.31389e-05
2.32803e-05
2.34215e-05
2.35619e-05
2.3701e-05
2.38381e-05
2.39727e-05
2.41038e-05
2.42307e-05
2.43525e-05
2.44685e-05
2.45775e-05
2.46785e-05
2.47702e-05
2.48516e-05
2.49212e-05
2.49777e-05
2.502e-05
2.50466e-05
2.50564e-05
2.50484e-05
2.50215e-05
2.4975e-05
2.49082e-05
2.48206e-05
2.47116e-05
2.45797e-05
2.44265e-05
2.425e-05
2.40529e-05
2.38334e-05
2.3597e-05
2.33453e-05
2.25976e-05
2.23342e-05
2.20656e-05
2.18075e-05
2.15529e-05
2.13137e-05
2.10869e-05
2.0876e-05
2.06812e-05
2.05027e-05
2.03413e-05
2.01968e-05
2.00699e-05
1.99592e-05
1.98635e-05
1.97819e-05
1.97133e-05
1.96569e-05
1.96117e-05
1.9577e-05
1.95521e-05
1.95362e-05
1.95286e-05
1.95287e-05
1.9536e-05
1.955e-05
1.95701e-05
1.95959e-05
1.9627e-05
1.96632e-05
1.97042e-05
1.97496e-05
1.97993e-05
1.9853e-05
1.99106e-05
1.99718e-05
2.00367e-05
2.01051e-05
2.0177e-05
2.02521e-05
2.03306e-05
2.04124e-05
2.04973e-05
2.05855e-05
2.06767e-05
2.07709e-05
2.08681e-05
2.09683e-05
2.10715e-05
2.11774e-05
2.12861e-05
2.13975e-05
2.15115e-05
2.16279e-05
2.17467e-05
2.1868e-05
2.19916e-05
2.21175e-05
2.22455e-05
2.23753e-05
2.25066e-05
2.26394e-05
2.27731e-05
2.29076e-05
2.30426e-05
2.31775e-05
2.33121e-05
2.34457e-05
2.3578e-05
2.37083e-05
2.38361e-05
2.39605e-05
2.4081e-05
2.41965e-05
2.43064e-05
2.44097e-05
2.45056e-05
2.4593e-05
2.46708e-05
2.47378e-05
2.4793e-05
2.48351e-05
2.48629e-05
2.48754e-05
2.48713e-05
2.48499e-05
2.48103e-05
2.47519e-05
2.46745e-05
2.45775e-05
2.4461e-05
2.43249e-05
2.41682e-05
2.39927e-05
2.37974e-05
2.35843e-05
2.33528e-05
2.31073e-05
2.285e-05
2.20873e-05
2.18305e-05
2.15709e-05
2.13241e-05
2.10841e-05
2.08612e-05
2.06531e-05
2.04624e-05
2.02893e-05
2.01333e-05
1.9995e-05
1.98738e-05
1.97698e-05
1.96818e-05
1.96084e-05
1.95486e-05
1.95014e-05
1.94656e-05
1.94405e-05
1.94251e-05
1.94188e-05
1.94209e-05
1.94305e-05
1.94472e-05
1.94704e-05
1.94995e-05
1.95342e-05
1.95739e-05
1.96183e-05
1.96673e-05
1.97204e-05
1.97774e-05
1.98382e-05
1.99024e-05
1.99701e-05
2.00409e-05
2.01149e-05
2.0192e-05
2.02721e-05
2.03551e-05
2.04409e-05
2.05297e-05
2.06213e-05
2.07156e-05
2.08126e-05
2.09122e-05
2.10145e-05
2.11192e-05
2.12265e-05
2.13362e-05
2.14482e-05
2.15624e-05
2.16787e-05
2.17969e-05
2.1917e-05
2.20391e-05
2.21629e-05
2.22883e-05
2.24152e-05
2.25431e-05
2.2672e-05
2.28013e-05
2.29308e-05
2.30602e-05
2.31891e-05
2.33169e-05
2.34433e-05
2.35676e-05
2.36894e-05
2.38079e-05
2.39226e-05
2.40326e-05
2.41372e-05
2.42355e-05
2.43268e-05
2.44099e-05
2.44842e-05
2.45485e-05
2.46018e-05
2.46431e-05
2.46712e-05
2.46852e-05
2.4684e-05
2.46667e-05
2.46324e-05
2.45805e-05
2.45107e-05
2.44227e-05
2.43164e-05
2.4192e-05
2.40497e-05
2.38898e-05
2.37125e-05
2.35191e-05
2.33097e-05
2.30857e-05
2.28474e-05
2.25981e-05
2.23402e-05
2.15754e-05
2.13292e-05
2.10826e-05
2.08505e-05
2.06279e-05
2.04236e-05
2.02358e-05
2.00664e-05
1.99154e-05
1.9782e-05
1.96664e-05
1.95677e-05
1.94856e-05
1.9419e-05
1.93666e-05
1.93272e-05
1.92996e-05
1.92829e-05
1.92762e-05
1.92785e-05
1.92892e-05
1.93076e-05
1.9333e-05
1.93648e-05
1.94024e-05
1.94454e-05
1.94934e-05
1.95459e-05
1.96025e-05
1.96631e-05
1.97274e-05
1.9795e-05
1.98659e-05
1.99399e-05
2.00168e-05
2.00964e-05
2.01788e-05
2.02638e-05
2.03514e-05
2.04415e-05
2.05341e-05
2.06292e-05
2.07267e-05
2.08265e-05
2.09286e-05
2.10329e-05
2.11395e-05
2.12481e-05
2.13588e-05
2.14714e-05
2.15858e-05
2.1702e-05
2.18197e-05
2.19387e-05
2.20592e-05
2.2181e-05
2.23039e-05
2.24278e-05
2.25524e-05
2.26773e-05
2.28022e-05
2.29269e-05
2.30508e-05
2.31736e-05
2.32948e-05
2.3414e-05
2.35306e-05
2.3644e-05
2.37535e-05
2.38586e-05
2.39585e-05
2.40524e-05
2.41396e-05
2.4219e-05
2.429e-05
2.43516e-05
2.44029e-05
2.4443e-05
2.44709e-05
2.44856e-05
2.44863e-05
2.4472e-05
2.44419e-05
2.43954e-05
2.43319e-05
2.42512e-05
2.4153e-05
2.40377e-05
2.39055e-05
2.37568e-05
2.35924e-05
2.34131e-05
2.32197e-05
2.30134e-05
2.2795e-05
2.25653e-05
2.23253e-05
2.20777e-05
2.1824e-05
2.10691e-05
2.08371e-05
2.06069e-05
2.03922e-05
2.01892e-05
2.00051e-05
1.98387e-05
1.96911e-05
1.95622e-05
1.9451e-05
1.93573e-05
1.928e-05
1.92186e-05
1.91721e-05
1.91391e-05
1.91183e-05
1.91088e-05
1.91095e-05
1.91194e-05
1.91378e-05
1.91639e-05
1.91971e-05
1.92367e-05
1.92821e-05
1.93328e-05
1.93884e-05
1.94484e-05
1.95124e-05
1.95801e-05
1.96513e-05
1.97257e-05
1.9803e-05
1.98831e-05
1.99659e-05
2.00512e-05
2.01388e-05
2.02287e-05
2.03209e-05
2.04153e-05
2.05117e-05
2.06103e-05
2.0711e-05
2.08136e-05
2.09181e-05
2.10246e-05
2.11328e-05
2.12428e-05
2.13545e-05
2.14677e-05
2.15823e-05
2.16983e-05
2.18154e-05
2.19335e-05
2.20524e-05
2.21722e-05
2.22926e-05
2.24135e-05
2.25346e-05
2.26556e-05
2.27762e-05
2.28959e-05
2.30144e-05
2.31312e-05
2.32459e-05
2.3358e-05
2.34669e-05
2.3572e-05
2.36728e-05
2.37685e-05
2.38585e-05
2.3942e-05
2.40181e-05
2.40862e-05
2.41454e-05
2.41948e-05
2.42336e-05
2.42609e-05
2.42759e-05
2.42778e-05
2.42657e-05
2.42389e-05
2.41967e-05
2.41385e-05
2.40641e-05
2.3973e-05
2.38654e-05
2.37416e-05
2.36019e-05
2.34472e-05
2.32782e-05
2.30959e-05
2.29022e-05
2.26977e-05
2.24839e-05
2.22616e-05
2.20314e-05
2.17947e-05
2.15538e-05
2.13088e-05
2.05747e-05
2.03598e-05
2.01486e-05
1.99535e-05
1.97716e-05
1.96088e-05
1.94643e-05
1.93384e-05
1.92312e-05
1.91414e-05
1.90684e-05
1.90114e-05
1.89691e-05
1.89411e-05
1.89258e-05
1.8922e-05
1.89288e-05
1.89451e-05
1.897e-05
1.90028e-05
1.90428e-05
1.90892e-05
1.91415e-05
1.91991e-05
1.92616e-05
1.93284e-05
1.93992e-05
1.94736e-05
1.95512e-05
1.96319e-05
1.97153e-05
1.98014e-05
1.98898e-05
1.99804e-05
2.00732e-05
2.01679e-05
2.02646e-05
2.03631e-05
2.04634e-05
2.05654e-05
2.06692e-05
2.07745e-05
2.08815e-05
2.099e-05
2.10999e-05
2.12112e-05
2.13238e-05
2.14375e-05
2.15523e-05
2.16681e-05
2.17845e-05
2.19015e-05
2.20189e-05
2.21366e-05
2.22545e-05
2.23724e-05
2.249e-05
2.2607e-05
2.27231e-05
2.28379e-05
2.2951e-05
2.30618e-05
2.31701e-05
2.32751e-05
2.33764e-05
2.34734e-05
2.35655e-05
2.3652e-05
2.37323e-05
2.38055e-05
2.3871e-05
2.3928e-05
2.39757e-05
2.40133e-05
2.404e-05
2.4055e-05
2.40577e-05
2.40472e-05
2.40229e-05
2.39842e-05
2.39304e-05
2.38613e-05
2.37765e-05
2.36759e-05
2.35595e-05
2.34279e-05
2.32816e-05
2.31213e-05
2.2948e-05
2.27632e-05
2.25682e-05
2.23651e-05
2.21549e-05
2.19387e-05
2.17177e-05
2.1492e-05
2.12634e-05
2.10335e-05
2.08015e-05
2.00974e-05
1.9902e-05
1.97117e-05
1.95377e-05
1.93777e-05
1.92366e-05
1.91138e-05
1.90092e-05
1.89228e-05
1.88531e-05
1.87997e-05
1.87612e-05
1.87366e-05
1.87253e-05
1.8726e-05
1.87375e-05
1.87588e-05
1.87891e-05
1.88273e-05
1.88729e-05
1.89251e-05
1.89833e-05
1.90469e-05
1.91154e-05
1.91882e-05
1.9265e-05
1.93454e-05
1.94289e-05
1.95154e-05
1.96045e-05
1.9696e-05
1.97897e-05
1.98855e-05
1.9983e-05
2.00824e-05
2.01833e-05
2.02858e-05
2.03898e-05
2.04952e-05
2.06019e-05
2.071e-05
2.08192e-05
2.09296e-05
2.10412e-05
2.11537e-05
2.12671e-05
2.13813e-05
2.14961e-05
2.16115e-05
2.17272e-05
2.18431e-05
2.19589e-05
2.20744e-05
2.21897e-05
2.23046e-05
2.24186e-05
2.25316e-05
2.26432e-05
2.2753e-05
2.28606e-05
2.29654e-05
2.30672e-05
2.31652e-05
2.32589e-05
2.33479e-05
2.34314e-05
2.35089e-05
2.35795e-05
2.36428e-05
2.36978e-05
2.3744e-05
2.37805e-05
2.38066e-05
2.38217e-05
2.38249e-05
2.38157e-05
2.37934e-05
2.37574e-05
2.37074e-05
2.36428e-05
2.35633e-05
2.34688e-05
2.33593e-05
2.32351e-05
2.30965e-05
2.29442e-05
2.27792e-05
2.26024e-05
2.24153e-05
2.22197e-05
2.20174e-05
2.18103e-05
2.15996e-05
2.13861e-05
2.11712e-05
2.09548e-05
2.07384e-05
2.05232e-05
2.03078e-05
1.96414e-05
1.94671e-05
1.92989e-05
1.91466e-05
1.90087e-05
1.88892e-05
1.87874e-05
1.87032e-05
1.86364e-05
1.85856e-05
1.855e-05
1.85284e-05
1.85198e-05
1.85235e-05
1.85384e-05
1.85635e-05
1.85977e-05
1.86402e-05
1.86902e-05
1.8747e-05
1.881e-05
1.88785e-05
1.89519e-05
1.90299e-05
1.91118e-05
1.91974e-05
1.92861e-05
1.93777e-05
1.94719e-05
1.95684e-05
1.96669e-05
1.97673e-05
1.98694e-05
1.9973e-05
2.0078e-05
2.01842e-05
2.02917e-05
2.04002e-05
2.05098e-05
2.06203e-05
2.07317e-05
2.08439e-05
2.09569e-05
2.10705e-05
2.11846e-05
2.12991e-05
2.14139e-05
2.15288e-05
2.16437e-05
2.17583e-05
2.18723e-05
2.19857e-05
2.20983e-05
2.22099e-05
2.23204e-05
2.24292e-05
2.25362e-05
2.26409e-05
2.2743e-05
2.28418e-05
2.2937e-05
2.3028e-05
2.31143e-05
2.31952e-05
2.32703e-05
2.33387e-05
2.34e-05
2.34534e-05
2.34982e-05
2.35338e-05
2.35595e-05
2.35745e-05
2.35782e-05
2.35701e-05
2.35495e-05
2.35159e-05
2.3469e-05
2.34082e-05
2.33333e-05
2.32442e-05
2.31408e-05
2.30233e-05
2.28919e-05
2.27472e-05
2.259e-05
2.2421e-05
2.22416e-05
2.2053e-05
2.18573e-05
2.16565e-05
2.14522e-05
2.12464e-05
2.10401e-05
2.08341e-05
2.06298e-05
2.04266e-05
2.02261e-05
2.00287e-05
1.98328e-05
1.92097e-05
1.90573e-05
1.89117e-05
1.87812e-05
1.86651e-05
1.85664e-05
1.84847e-05
1.84196e-05
1.8371e-05
1.83373e-05
1.83179e-05
1.83115e-05
1.83172e-05
1.83341e-05
1.83616e-05
1.83984e-05
1.84438e-05
1.8497e-05
1.85572e-05
1.86237e-05
1.8696e-05
1.87734e-05
1.88554e-05
1.89415e-05
1.90313e-05
1.91244e-05
1.92204e-05
1.93189e-05
1.94197e-05
1.95225e-05
1.96271e-05
1.97332e-05
1.98406e-05
1.99492e-05
2.00589e-05
2.01695e-05
2.02809e-05
2.03931e-05
2.05059e-05
2.06193e-05
2.07331e-05
2.08473e-05
2.09618e-05
2.10765e-05
2.11912e-05
2.13057e-05
2.142e-05
2.15338e-05
2.1647e-05
2.17592e-05
2.18703e-05
2.19801e-05
2.20884e-05
2.21951e-05
2.22998e-05
2.24021e-05
2.25016e-05
2.2598e-05
2.26908e-05
2.27794e-05
2.28634e-05
2.29421e-05
2.30151e-05
2.30817e-05
2.31414e-05
2.31934e-05
2.32371e-05
2.32719e-05
2.32972e-05
2.33122e-05
2.33165e-05
2.33094e-05
2.32904e-05
2.32589e-05
2.32146e-05
2.31572e-05
2.30863e-05
2.30019e-05
2.29039e-05
2.27924e-05
2.26676e-05
2.253e-05
2.23801e-05
2.22187e-05
2.20469e-05
2.18657e-05
2.16767e-05
2.14818e-05
2.1283e-05
2.10823e-05
2.08811e-05
2.06815e-05
2.04844e-05
2.02903e-05
2.01002e-05
1.99137e-05
1.97319e-05
1.95547e-05
1.93802e-05
1.88041e-05
1.86739e-05
1.85507e-05
1.84416e-05
1.83462e-05
1.82673e-05
1.82043e-05
1.81569e-05
1.81248e-05
1.81066e-05
1.81016e-05
1.81086e-05
1.81268e-05
1.81553e-05
1.81935e-05
1.82405e-05
1.82955e-05
1.83578e-05
1.84267e-05
1.85015e-05
1.85816e-05
1.86666e-05
1.87559e-05
1.88489e-05
1.89454e-05
1.90449e-05
1.9147e-05
1.92513e-05
1.93577e-05
1.94657e-05
1.95753e-05
1.9686e-05
1.97978e-05
1.99105e-05
2.00239e-05
2.01379e-05
2.02523e-05
2.03672e-05
2.04822e-05
2.05974e-05
2.07127e-05
2.08279e-05
2.09428e-05
2.10575e-05
2.11716e-05
2.12851e-05
2.13977e-05
2.15093e-05
2.16195e-05
2.17281e-05
2.1835e-05
2.19399e-05
2.20427e-05
2.2143e-05
2.22405e-05
2.23348e-05
2.24255e-05
2.25121e-05
2.25941e-05
2.2671e-05
2.27423e-05
2.28073e-05
2.28656e-05
2.29164e-05
2.29593e-05
2.29936e-05
2.30186e-05
2.30338e-05
2.30387e-05
2.30325e-05
2.3015e-05
2.29855e-05
2.29437e-05
2.28893e-05
2.2822e-05
2.27418e-05
2.26485e-05
2.25424e-05
2.24236e-05
2.22924e-05
2.21494e-05
2.19953e-05
2.18308e-05
2.16571e-05
2.14754e-05
2.12868e-05
2.10937e-05
2.0898e-05
2.07014e-05
2.05058e-05
2.03127e-05
2.01238e-05
1.99398e-05
1.97611e-05
1.95885e-05
1.94212e-05
1.92601e-05
1.91047e-05
1.89526e-05
1.84253e-05
1.83172e-05
1.82156e-05
1.81269e-05
1.80511e-05
1.79905e-05
1.79447e-05
1.79132e-05
1.78959e-05
1.78914e-05
1.78989e-05
1.79176e-05
1.79465e-05
1.79849e-05
1.80322e-05
1.80878e-05
1.81509e-05
1.82208e-05
1.82969e-05
1.83786e-05
1.84653e-05
1.85566e-05
1.86518e-05
1.87507e-05
1.88526e-05
1.89573e-05
1.90644e-05
1.91735e-05
1.92843e-05
1.93966e-05
1.95101e-05
1.96245e-05
1.97396e-05
1.98554e-05
1.99715e-05
2.00878e-05
2.02043e-05
2.03207e-05
2.0437e-05
2.0553e-05
2.06686e-05
2.07837e-05
2.08981e-05
2.10116e-05
2.1124e-05
2.12353e-05
2.1345e-05
2.1453e-05
2.1559e-05
2.16627e-05
2.17641e-05
2.18628e-05
2.19587e-05
2.20513e-05
2.21402e-05
2.22251e-05
2.23055e-05
2.23808e-05
2.24506e-05
2.25144e-05
2.25716e-05
2.26216e-05
2.26638e-05
2.26977e-05
2.27227e-05
2.27382e-05
2.27437e-05
2.27386e-05
2.27225e-05
2.26949e-05
2.26555e-05
2.26039e-05
2.254e-05
2.24636e-05
2.23748e-05
2.22735e-05
2.216e-05
2.20348e-05
2.18981e-05
2.17508e-05
2.15933e-05
2.14269e-05
2.12523e-05
2.1071e-05
2.08841e-05
2.06938e-05
2.05021e-05
2.03106e-05
2.01212e-05
1.99355e-05
1.97546e-05
1.95802e-05
1.94127e-05
1.92522e-05
1.90994e-05
1.89531e-05
1.8814e-05
1.8681e-05
1.85518e-05
1.80735e-05
1.79866e-05
1.79054e-05
1.78359e-05
1.77781e-05
1.77341e-05
1.77037e-05
1.76864e-05
1.7682e-05
1.76893e-05
1.77077e-05
1.77362e-05
1.77742e-05
1.78208e-05
1.78757e-05
1.79384e-05
1.8008e-05
1.80842e-05
1.81661e-05
1.82534e-05
1.83454e-05
1.84417e-05
1.85417e-05
1.86451e-05
1.87514e-05
1.88602e-05
1.89711e-05
1.90839e-05
1.91981e-05
1.93136e-05
1.943e-05
1.9547e-05
1.96645e-05
1.97822e-05
1.99e-05
2.00177e-05
2.01351e-05
2.02521e-05
2.03686e-05
2.04843e-05
2.05992e-05
2.0713e-05
2.08256e-05
2.09368e-05
2.10463e-05
2.1154e-05
2.12596e-05
2.13628e-05
2.14633e-05
2.15609e-05
2.16555e-05
2.17467e-05
2.18342e-05
2.19177e-05
2.19967e-05
2.20708e-05
2.21394e-05
2.22021e-05
2.22584e-05
2.23078e-05
2.23496e-05
2.23833e-05
2.24084e-05
2.24243e-05
2.24306e-05
2.24267e-05
2.24121e-05
2.23865e-05
2.23494e-05
2.23006e-05
2.22399e-05
2.21672e-05
2.20824e-05
2.19857e-05
2.18773e-05
2.17574e-05
2.16266e-05
2.14855e-05
2.13347e-05
2.11752e-05
2.10076e-05
2.08334e-05
2.06536e-05
2.04694e-05
2.0283e-05
2.00963e-05
1.99109e-05
1.97286e-05
1.95508e-05
1.9379e-05
1.92139e-05
1.9057e-05
1.89085e-05
1.87682e-05
1.86365e-05
1.85122e-05
1.83955e-05
1.8285e-05
1.81784e-05
1.77479e-05
1.7681e-05
1.76187e-05
1.75666e-05
1.75251e-05
1.7496e-05
1.74791e-05
1.74741e-05
1.74808e-05
1.74981e-05
1.75256e-05
1.75623e-05
1.76076e-05
1.7661e-05
1.7722e-05
1.77901e-05
1.7865e-05
1.79459e-05
1.80325e-05
1.8124e-05
1.822e-05
1.83201e-05
1.84238e-05
1.85306e-05
1.864e-05
1.87519e-05
1.88656e-05
1.8981e-05
1.90975e-05
1.92151e-05
1.93333e-05
1.94519e-05
1.95707e-05
1.96894e-05
1.98078e-05
1.99257e-05
2.0043e-05
2.01595e-05
2.0275e-05
2.03893e-05
2.05023e-05
2.06136e-05
2.07233e-05
2.08309e-05
2.09364e-05
2.10393e-05
2.11394e-05
2.12364e-05
2.13301e-05
2.14204e-05
2.15068e-05
2.15892e-05
2.16671e-05
2.17402e-05
2.18079e-05
2.18698e-05
2.19254e-05
2.19743e-05
2.20158e-05
2.20496e-05
2.2075e-05
2.20915e-05
2.20987e-05
2.2096e-05
2.20831e-05
2.20595e-05
2.20248e-05
2.19789e-05
2.19214e-05
2.18522e-05
2.17715e-05
2.16791e-05
2.15754e-05
2.14607e-05
2.13355e-05
2.12002e-05
2.10556e-05
2.09025e-05
2.07417e-05
2.05744e-05
2.04015e-05
2.02244e-05
2.00441e-05
1.98626e-05
1.96819e-05
1.95035e-05
1.93292e-05
1.91602e-05
1.89977e-05
1.88429e-05
1.86964e-05
1.85591e-05
1.84312e-05
1.83122e-05
1.82023e-05
1.81001e-05
1.80055e-05
1.7917e-05
1.7832e-05
1.7447e-05
1.73985e-05
1.73534e-05
1.7317e-05
1.72898e-05
1.72737e-05
1.72685e-05
1.72739e-05
1.72899e-05
1.73155e-05
1.73502e-05
1.73934e-05
1.74446e-05
1.75032e-05
1.75688e-05
1.76411e-05
1.77198e-05
1.78043e-05
1.78941e-05
1.79886e-05
1.80875e-05
1.81902e-05
1.82963e-05
1.84054e-05
1.8517e-05
1.86307e-05
1.87461e-05
1.8863e-05
1.89808e-05
1.90994e-05
1.92184e-05
1.93375e-05
1.94564e-05
1.9575e-05
1.96929e-05
1.98101e-05
1.99261e-05
2.00409e-05
2.01543e-05
2.02661e-05
2.03759e-05
2.04837e-05
2.05891e-05
2.0692e-05
2.0792e-05
2.08888e-05
2.09822e-05
2.10718e-05
2.11575e-05
2.12391e-05
2.13162e-05
2.13885e-05
2.14555e-05
2.15168e-05
2.1572e-05
2.16206e-05
2.16621e-05
2.1696e-05
2.17219e-05
2.17392e-05
2.17474e-05
2.17461e-05
2.1735e-05
2.17135e-05
2.16813e-05
2.16383e-05
2.1584e-05
2.15186e-05
2.14418e-05
2.13538e-05
2.12548e-05
2.11451e-05
2.10252e-05
2.08955e-05
2.07568e-05
2.06099e-05
2.04555e-05
2.02947e-05
2.01286e-05
1.99584e-05
1.97849e-05
1.96097e-05
1.9434e-05
1.92603e-05
1.909e-05
1.89244e-05
1.87649e-05
1.86125e-05
1.84682e-05
1.83327e-05
1.82064e-05
1.80901e-05
1.79836e-05
1.78863e-05
1.7798e-05
1.77174e-05
1.76441e-05
1.75765e-05
1.75117e-05
1.7169e-05
1.71372e-05
1.71073e-05
1.70847e-05
1.707e-05
1.7065e-05
1.70695e-05
1.70835e-05
1.71069e-05
1.7139e-05
1.71794e-05
1.72275e-05
1.7283e-05
1.73454e-05
1.74142e-05
1.74894e-05
1.75706e-05
1.76573e-05
1.77491e-05
1.78455e-05
1.79461e-05
1.80503e-05
1.81577e-05
1.82679e-05
1.83805e-05
1.8495e-05
1.8611e-05
1.87283e-05
1.88463e-05
1.89649e-05
1.90835e-05
1.9202e-05
1.93201e-05
1.94374e-05
1.95537e-05
1.96689e-05
1.97826e-05
1.98946e-05
2.00047e-05
2.01126e-05
2.02182e-05
2.03211e-05
2.04211e-05
2.05179e-05
2.06112e-05
2.07007e-05
2.07861e-05
2.08671e-05
2.09437e-05
2.10154e-05
2.1082e-05
2.11429e-05
2.11978e-05
2.12463e-05
2.12879e-05
2.13222e-05
2.13487e-05
2.13668e-05
2.13763e-05
2.13766e-05
2.13673e-05
2.13481e-05
2.13185e-05
2.12785e-05
2.12277e-05
2.11659e-05
2.10933e-05
2.10098e-05
2.09156e-05
2.08109e-05
2.06963e-05
2.05722e-05
2.04392e-05
2.02983e-05
2.01501e-05
1.99957e-05
1.98361e-05
1.96724e-05
1.95057e-05
1.93372e-05
1.9168e-05
1.89994e-05
1.88334e-05
1.86718e-05
1.85158e-05
1.83665e-05
1.82248e-05
1.80914e-05
1.79671e-05
1.78523e-05
1.77473e-05
1.76524e-05
1.75671e-05
1.74911e-05
1.74237e-05
1.73636e-05
1.73103e-05
1.72621e-05
1.7216e-05
1.69119e-05
1.68947e-05
1.6878e-05
1.68673e-05
1.68631e-05
1.68672e-05
1.68797e-05
1.69004e-05
1.69296e-05
1.69665e-05
1.70109e-05
1.70624e-05
1.71207e-05
1.71854e-05
1.72563e-05
1.7333e-05
1.74154e-05
1.75032e-05
1.75959e-05
1.76929e-05
1.7794e-05
1.78986e-05
1.80062e-05
1.81165e-05
1.82289e-05
1.83431e-05
1.84587e-05
1.85752e-05
1.86924e-05
1.88098e-05
1.8927e-05
1.90438e-05
1.91598e-05
1.92748e-05
1.93884e-05
1.95004e-05
1.96105e-05
1.97186e-05
1.98242e-05
1.99272e-05
2.00272e-05
2.01241e-05
2.02174e-05
2.0307e-05
2.03923e-05
2.04732e-05
2.05495e-05
2.06209e-05
2.06872e-05
2.07479e-05
2.08028e-05
2.08514e-05
2.08933e-05
2.0928e-05
2.09552e-05
2.09745e-05
2.09852e-05
2.09872e-05
2.098e-05
2.09631e-05
2.09364e-05
2.08995e-05
2.08522e-05
2.07944e-05
2.0726e-05
2.06471e-05
2.05579e-05
2.04585e-05
2.03493e-05
2.02309e-05
2.01038e-05
1.99688e-05
1.98268e-05