/*--------------------------------*- C++ -*----------------------------------*\
| =========                 |                                                 |
| \\      /  F ield         | OpenFOAM: The Open Source CFD Toolbox           |
|  \\    /   O peration     | Version:  2306                                  |
|   \\  /    A nd           | Website:  www.openfoam.com                      |
|    \\/     M anipulation  |                                                 |
\*---------------------------------------------------------------------------*/
// * * * * * * * * * * * * * * * * * * * * * * * * * * * * * * * * * * * * * //
FoamFile
{
    version         2;
    format          ascii;
    class           volScalarField;
    location        "7258.82999998519063";
    object          nut;
}

dimensions      [ 0 2 -1 0 0 0 0 ];

internalField   nonuniform List<scalar> 
14751
(
1.45266e-05
1.43645e-05
1.42104e-05
1.40995e-05
1.3997e-05
1.39298e-05
1.388e-05
1.38561e-05
1.38549e-05
1.38761e-05
1.39219e-05
1.39915e-05
1.40848e-05
1.42002e-05
1.43366e-05
1.44928e-05
1.46676e-05
1.48594e-05
1.50667e-05
1.52879e-05
1.55216e-05
1.5766e-05
1.60197e-05
1.62806e-05
1.65476e-05
1.68191e-05
1.70933e-05
1.73694e-05
1.76453e-05
1.79206e-05
1.8194e-05
1.84648e-05
1.8732e-05
1.89949e-05
1.92531e-05
1.95059e-05
1.97531e-05
1.99943e-05
2.02289e-05
2.04571e-05
2.06787e-05
2.08932e-05
2.11002e-05
2.12992e-05
2.149e-05
2.16724e-05
2.18461e-05
2.20108e-05
2.2166e-05
2.23113e-05
2.24462e-05
2.25701e-05
2.26824e-05
2.27825e-05
2.28699e-05
2.29445e-05
2.30055e-05
2.30526e-05
2.30852e-05
2.31027e-05
2.31042e-05
2.30894e-05
2.3058e-05
2.30102e-05
2.29458e-05
2.28645e-05
2.27662e-05
2.2651e-05
2.25193e-05
2.23712e-05
2.22069e-05
2.20267e-05
2.18314e-05
2.16211e-05
2.13968e-05
2.11586e-05
2.09085e-05
2.06465e-05
2.03742e-05
2.00913e-05
1.97993e-05
1.94999e-05
1.91938e-05
1.8883e-05
1.85679e-05
1.82511e-05
1.79343e-05
1.76188e-05
1.73073e-05
1.7001e-05
1.67021e-05
1.6413e-05
1.61312e-05
1.58629e-05
1.5603e-05
1.53584e-05
1.51233e-05
1.4905e-05
1.46846e-05
1.78653e-05
1.76908e-05
1.75246e-05
1.74159e-05
1.73183e-05
1.7265e-05
1.72335e-05
1.72333e-05
1.72603e-05
1.73136e-05
1.73955e-05
1.75041e-05
1.76394e-05
1.7799e-05
1.79815e-05
1.81852e-05
1.84082e-05
1.86488e-05
1.89049e-05
1.91746e-05
1.94563e-05
1.97477e-05
2.00474e-05
2.0353e-05
2.06633e-05
2.09764e-05
2.12907e-05
2.16051e-05
2.19176e-05
2.22278e-05
2.25343e-05
2.28363e-05
2.31331e-05
2.34239e-05
2.37083e-05
2.39857e-05
2.4256e-05
2.45187e-05
2.47735e-05
2.50204e-05
2.52592e-05
2.54897e-05
2.57115e-05
2.59244e-05
2.61279e-05
2.63218e-05
2.6506e-05
2.66801e-05
2.68436e-05
2.69961e-05
2.71372e-05
2.72662e-05
2.73824e-05
2.74854e-05
2.75745e-05
2.76496e-05
2.77099e-05
2.77551e-05
2.77845e-05
2.77975e-05
2.77932e-05
2.77714e-05
2.77314e-05
2.76734e-05
2.75972e-05
2.75024e-05
2.73889e-05
2.72566e-05
2.71061e-05
2.69373e-05
2.67503e-05
2.65456e-05
2.63238e-05
2.6085e-05
2.583e-05
2.55592e-05
2.52742e-05
2.49752e-05
2.46638e-05
2.43398e-05
2.40049e-05
2.36606e-05
2.33077e-05
2.29486e-05
2.25836e-05
2.22155e-05
2.18464e-05
2.14777e-05
2.11126e-05
2.07526e-05
2.04003e-05
2.00591e-05
1.97262e-05
1.94095e-05
1.91035e-05
1.8817e-05
1.85431e-05
1.82942e-05
1.80421e-05
2.14357e-05
2.12417e-05
2.10679e-05
2.09648e-05
2.08809e-05
2.0851e-05
2.08489e-05
2.08849e-05
2.09534e-05
2.10531e-05
2.11861e-05
2.13502e-05
2.15447e-05
2.17668e-05
2.20142e-05
2.22848e-05
2.25762e-05
2.28861e-05
2.32118e-05
2.3551e-05
2.39018e-05
2.42613e-05
2.46279e-05
2.49988e-05
2.53726e-05
2.57472e-05
2.61209e-05
2.64923e-05
2.68593e-05
2.72218e-05
2.75781e-05
2.79274e-05
2.82691e-05
2.86024e-05
2.8927e-05
2.92423e-05
2.95481e-05
2.98442e-05
3.01303e-05
3.04064e-05
3.06724e-05
3.09283e-05
3.11736e-05
3.14084e-05
3.16321e-05
3.18445e-05
3.20455e-05
3.22346e-05
3.24116e-05
3.25758e-05
3.27268e-05
3.28641e-05
3.29867e-05
3.30943e-05
3.31862e-05
3.32622e-05
3.33216e-05
3.33638e-05
3.33882e-05
3.33941e-05
3.33806e-05
3.33473e-05
3.32935e-05
3.32191e-05
3.31238e-05
3.30072e-05
3.28693e-05
3.27097e-05
3.2529e-05
3.2327e-05
3.2104e-05
3.18601e-05
3.1596e-05
3.13118e-05
3.10083e-05
3.06858e-05
3.0346e-05
2.9989e-05
2.96167e-05
2.9229e-05
2.88277e-05
2.84145e-05
2.79903e-05
2.7558e-05
2.71179e-05
2.66736e-05
2.6227e-05
2.57805e-05
2.53374e-05
2.48999e-05
2.44711e-05
2.40549e-05
2.36494e-05
2.32637e-05
2.28924e-05
2.25464e-05
2.22188e-05
2.19247e-05
2.16355e-05
2.51308e-05
2.49159e-05
2.47416e-05
2.4651e-05
2.45923e-05
2.4598e-05
2.46389e-05
2.47259e-05
2.48513e-05
2.50139e-05
2.52152e-05
2.54528e-05
2.57253e-05
2.60289e-05
2.6361e-05
2.67185e-05
2.70985e-05
2.74978e-05
2.79135e-05
2.83424e-05
2.87823e-05
2.92297e-05
2.96826e-05
3.01377e-05
3.05935e-05
3.10475e-05
3.14978e-05
3.19429e-05
3.23806e-05
3.28107e-05
3.32315e-05
3.36422e-05
3.40422e-05
3.44307e-05
3.48074e-05
3.51718e-05
3.55239e-05
3.58635e-05
3.61903e-05
3.65044e-05
3.68058e-05
3.70945e-05
3.73705e-05
3.76334e-05
3.7883e-05
3.8119e-05
3.83412e-05
3.85492e-05
3.87427e-05
3.8921e-05
3.90839e-05
3.92306e-05
3.93602e-05
3.9472e-05
3.95657e-05
3.96409e-05
3.96967e-05
3.97326e-05
3.97477e-05
3.97415e-05
3.97129e-05
3.96613e-05
3.95859e-05
3.94864e-05
3.93624e-05
3.92135e-05
3.90395e-05
3.88401e-05
3.86157e-05
3.8366e-05
3.80913e-05
3.77917e-05
3.74679e-05
3.71199e-05
3.67487e-05
3.63544e-05
3.5939e-05
3.55026e-05
3.50474e-05
3.45733e-05
3.40828e-05
3.35775e-05
3.30589e-05
3.253e-05
3.1992e-05
3.14488e-05
3.09029e-05
3.03571e-05
2.98157e-05
2.92811e-05
2.87575e-05
2.82491e-05
2.7755e-05
2.72854e-05
2.68358e-05
2.64188e-05
2.60283e-05
2.5681e-05
2.5354e-05
2.88964e-05
2.86645e-05
2.84994e-05
2.84306e-05
2.841e-05
2.84653e-05
2.8565e-05
2.87187e-05
2.89177e-05
2.91607e-05
2.94484e-05
2.97779e-05
3.01472e-05
3.05514e-05
3.09871e-05
3.14505e-05
3.19379e-05
3.24454e-05
3.29693e-05
3.3506e-05
3.40525e-05
3.46048e-05
3.51604e-05
3.57157e-05
3.62688e-05
3.68168e-05
3.73577e-05
3.78897e-05
3.84108e-05
3.89205e-05
3.94173e-05
3.99001e-05
4.03684e-05
4.08216e-05
4.12593e-05
4.16811e-05
4.20871e-05
4.24772e-05
4.28511e-05
4.32091e-05
4.35511e-05
4.38775e-05
4.41881e-05
4.44828e-05
4.47611e-05
4.50229e-05
4.5268e-05
4.5496e-05
4.57064e-05
4.58987e-05
4.60725e-05
4.6227e-05
4.63613e-05
4.64745e-05
4.65663e-05
4.66363e-05
4.66834e-05
4.67071e-05
4.67064e-05
4.66807e-05
4.66287e-05
4.65497e-05
4.64429e-05
4.63076e-05
4.61434e-05
4.595e-05
4.57269e-05
4.54739e-05
4.51911e-05
4.48785e-05
4.45361e-05
4.41642e-05
4.37634e-05
4.33337e-05
4.28763e-05
4.23913e-05
4.18812e-05
4.13459e-05
4.0788e-05
4.0208e-05
3.96087e-05
3.89918e-05
3.83596e-05
3.77156e-05
3.70616e-05
3.64022e-05
3.57406e-05
3.50803e-05
3.44262e-05
3.37816e-05
3.31514e-05
3.25401e-05
3.19481e-05
3.13869e-05
3.08525e-05
3.03596e-05
2.99031e-05
2.9501e-05
2.91391e-05
3.27097e-05
3.24692e-05
3.23249e-05
3.22902e-05
3.23219e-05
3.2442e-05
3.26169e-05
3.28558e-05
3.31458e-05
3.34872e-05
3.38795e-05
3.43194e-05
3.48037e-05
3.53266e-05
3.58838e-05
3.64704e-05
3.70822e-05
3.77141e-05
3.83619e-05
3.90214e-05
3.96889e-05
4.03598e-05
4.10312e-05
4.16988e-05
4.23607e-05
4.30136e-05
4.36553e-05
4.42836e-05
4.48969e-05
4.54945e-05
4.60746e-05
4.66366e-05
4.71796e-05
4.77031e-05
4.8207e-05
4.86909e-05
4.91549e-05
4.9599e-05
5.00232e-05
5.04276e-05
5.08123e-05
5.11778e-05
5.1524e-05
5.18507e-05
5.21577e-05
5.24445e-05
5.27111e-05
5.29571e-05
5.3182e-05
5.33853e-05
5.35663e-05
5.37243e-05
5.38583e-05
5.39674e-05
5.40512e-05
5.41091e-05
5.41401e-05
5.41435e-05
5.41182e-05
5.40635e-05
5.3978e-05
5.38609e-05
5.37113e-05
5.35283e-05
5.33115e-05
5.30605e-05
5.27747e-05
5.2454e-05
5.20984e-05
5.17078e-05
5.12824e-05
5.08224e-05
5.03285e-05
4.9801e-05
4.9241e-05
4.86491e-05
4.80278e-05
4.73776e-05
4.67012e-05
4.59995e-05
4.52761e-05
4.45329e-05
4.37732e-05
4.30007e-05
4.22183e-05
4.14314e-05
4.06437e-05
3.98597e-05
3.90851e-05
3.83237e-05
3.75815e-05
3.6863e-05
3.61704e-05
3.55157e-05
3.48962e-05
3.43281e-05
3.38078e-05
3.33547e-05
3.29645e-05
3.65674e-05
3.63302e-05
3.62206e-05
3.62345e-05
3.63344e-05
3.6536e-05
3.68036e-05
3.71461e-05
3.75465e-05
3.80043e-05
3.85196e-05
3.90876e-05
3.97045e-05
4.03628e-05
4.10575e-05
4.17828e-05
4.25333e-05
4.33033e-05
4.40878e-05
4.4882e-05
4.56814e-05
4.6481e-05
4.72774e-05
4.80658e-05
4.88443e-05
4.96088e-05
5.03575e-05
5.10877e-05
5.1798e-05
5.24878e-05
5.3155e-05
5.37992e-05
5.44195e-05
5.50156e-05
5.55873e-05
5.61343e-05
5.6657e-05
5.71554e-05
5.76295e-05
5.80796e-05
5.85058e-05
5.89088e-05
5.92884e-05
5.96446e-05
5.99769e-05
6.02851e-05
6.05691e-05
6.08285e-05
6.10626e-05
6.1271e-05
6.1453e-05
6.16078e-05
6.17343e-05
6.18316e-05
6.1899e-05
6.19361e-05
6.19416e-05
6.19148e-05
6.18547e-05
6.17602e-05
6.16299e-05
6.1463e-05
6.12583e-05
6.10152e-05
6.07329e-05
6.04111e-05
6.00493e-05
5.96472e-05
5.92049e-05
5.87225e-05
5.82e-05
5.7638e-05
5.70371e-05
5.63979e-05
5.57217e-05
5.50095e-05
5.42642e-05
5.34864e-05
5.26795e-05
5.18447e-05
5.09867e-05
5.01073e-05
4.9211e-05
4.83021e-05
4.73842e-05
4.64639e-05
4.55454e-05
4.46342e-05
4.37367e-05
4.28574e-05
4.20033e-05
4.1179e-05
4.0388e-05
3.96435e-05
3.89433e-05
3.83059e-05
3.77284e-05
3.72324e-05
3.68235e-05
4.04787e-05
4.02599e-05
4.02007e-05
4.02801e-05
4.04654e-05
4.07667e-05
4.11456e-05
4.16104e-05
4.21404e-05
4.27337e-05
4.33893e-05
4.41025e-05
4.48679e-05
4.56768e-05
4.6523e-05
4.73997e-05
4.83007e-05
4.92194e-05
5.01501e-05
5.10874e-05
5.20262e-05
5.29609e-05
5.38879e-05
5.48017e-05
5.57005e-05
5.65798e-05
5.74379e-05
5.82718e-05
5.90803e-05
5.98628e-05
6.06174e-05
6.13434e-05
6.20402e-05
6.27076e-05
6.33453e-05
6.39534e-05
6.45323e-05
6.50821e-05
6.56028e-05
6.60949e-05
6.65586e-05
6.69946e-05
6.74027e-05
6.77829e-05
6.81349e-05
6.84583e-05
6.8753e-05
6.90187e-05
6.92546e-05
6.94604e-05
6.96351e-05
6.97779e-05
6.98878e-05
6.99638e-05
7.0005e-05
7.00108e-05
6.99802e-05
6.99122e-05
6.98058e-05
6.96598e-05
6.94729e-05
6.92439e-05
6.89719e-05
6.8656e-05
6.82956e-05
6.78904e-05
6.74398e-05
6.69437e-05
6.64023e-05
6.58155e-05
6.51838e-05
6.45077e-05
6.37882e-05
6.30261e-05
6.2223e-05
6.13804e-05
6.05014e-05
5.95873e-05
5.86419e-05
5.76668e-05
5.66676e-05
5.56467e-05
5.46094e-05
5.35607e-05
5.25053e-05
5.14505e-05
5.04014e-05
4.93644e-05
4.83465e-05
4.7353e-05
4.63918e-05
4.54675e-05
4.45851e-05
4.37585e-05
4.29865e-05
4.22892e-05
4.1665e-05
4.11378e-05
4.07223e-05
4.4462e-05
4.42789e-05
4.42877e-05
4.44511e-05
4.47405e-05
4.51606e-05
4.56701e-05
4.62762e-05
4.69545e-05
4.77022e-05
4.85144e-05
4.93882e-05
5.03162e-05
5.12885e-05
5.22976e-05
5.33358e-05
5.4396e-05
5.54707e-05
5.65536e-05
5.76389e-05
5.8721e-05
5.97936e-05
6.08529e-05
6.18931e-05
6.29126e-05
6.39062e-05
6.48725e-05
6.58084e-05
6.67129e-05
6.75855e-05
6.84242e-05
6.92285e-05
6.9998e-05
7.07323e-05
7.14316e-05
7.20958e-05
7.27256e-05
7.33212e-05
7.38827e-05
7.44106e-05
7.49052e-05
7.53673e-05
7.57967e-05
7.61934e-05
7.65571e-05
7.68875e-05
7.71844e-05
7.74475e-05
7.7676e-05
7.78694e-05
7.80269e-05
7.81477e-05
7.82305e-05
7.82745e-05
7.82784e-05
7.82417e-05
7.81635e-05
7.80427e-05
7.78781e-05
7.76687e-05
7.7413e-05
7.71099e-05
7.67584e-05
7.63577e-05
7.59073e-05
7.54069e-05
7.48559e-05
7.42544e-05
7.36028e-05
7.29011e-05
7.21499e-05
7.135e-05
7.05028e-05
6.96092e-05
6.86715e-05
6.76913e-05
6.66725e-05
6.56166e-05
6.45283e-05
6.34095e-05
6.22668e-05
6.1103e-05
5.99245e-05
5.87369e-05
5.7546e-05
5.63599e-05
5.51846e-05
5.40273e-05
5.28957e-05
5.17958e-05
5.07361e-05
4.97217e-05
4.87585e-05
4.78614e-05
4.70296e-05
4.62855e-05
4.56281e-05
4.50843e-05
4.46769e-05
4.85423e-05
4.84142e-05
4.85098e-05
4.87772e-05
4.91901e-05
4.97487e-05
5.04082e-05
5.11743e-05
5.20186e-05
5.29373e-05
5.39219e-05
5.49695e-05
5.60719e-05
5.72175e-05
5.8398e-05
5.96044e-05
6.08291e-05
6.20637e-05
6.33015e-05
6.45362e-05
6.57617e-05
6.69715e-05
6.81615e-05
6.93257e-05
7.04625e-05
7.15667e-05
7.26369e-05
7.36699e-05
7.46652e-05
7.56223e-05
7.65392e-05
7.74156e-05
7.82511e-05
7.90456e-05
7.97993e-05
8.05124e-05
8.11856e-05
8.18191e-05
8.24133e-05
8.29687e-05
8.34858e-05
8.39651e-05
8.44067e-05
8.48106e-05
8.51764e-05
8.5504e-05
8.5793e-05
8.60431e-05
8.62536e-05
8.6424e-05
8.65534e-05
8.66409e-05
8.66853e-05
8.66859e-05
8.66407e-05
8.65499e-05
8.64122e-05
8.62267e-05
8.59922e-05
8.57075e-05
8.53712e-05
8.49823e-05
8.45398e-05
8.40432e-05
8.34918e-05
8.28855e-05
8.2224e-05
8.15074e-05
8.07362e-05
7.99109e-05
7.90321e-05
7.81012e-05
7.71195e-05
7.60886e-05
7.50112e-05
7.38895e-05
7.27277e-05
7.1528e-05
7.02957e-05
6.90332e-05
6.77481e-05
6.64437e-05
6.51275e-05
6.38057e-05
6.24851e-05
6.11748e-05
5.98814e-05
5.8613e-05
5.73779e-05
5.61829e-05
5.5037e-05
5.39455e-05
5.29155e-05
5.19626e-05
5.10862e-05
5.03109e-05
4.96363e-05
4.90926e-05
4.87099e-05
5.27498e-05
5.26973e-05
5.28995e-05
5.32913e-05
5.38475e-05
5.45643e-05
5.53925e-05
5.63363e-05
5.73628e-05
5.8467e-05
5.96376e-05
6.08693e-05
6.21548e-05
6.34806e-05
6.48373e-05
6.62153e-05
6.76062e-05
6.90011e-05
7.03927e-05
7.17746e-05
7.31404e-05
7.44832e-05
7.5799e-05
7.70815e-05
7.83295e-05
7.95375e-05
8.07044e-05
8.18271e-05
8.29054e-05
8.39388e-05
8.49255e-05
8.58654e-05
8.67582e-05
8.7604e-05
8.8403e-05
8.91556e-05
8.98626e-05
9.05245e-05
9.11416e-05
9.17147e-05
9.2244e-05
9.27303e-05
9.31737e-05
9.35741e-05
9.39312e-05
9.42448e-05
9.45148e-05
9.47407e-05
9.49218e-05
9.50577e-05
9.51473e-05
9.51898e-05
9.51842e-05
9.51294e-05
9.50234e-05
9.48666e-05
9.46577e-05
9.43958e-05
9.40798e-05
9.37085e-05
9.32805e-05
9.2795e-05
9.22511e-05
9.16484e-05
9.09864e-05
9.02651e-05
8.94844e-05
8.86447e-05
8.77467e-05
8.6791e-05
8.57788e-05
8.47117e-05
8.35915e-05
8.24201e-05
8.12007e-05
7.99362e-05
7.86314e-05
7.72889e-05
7.59146e-05
7.45118e-05
7.30887e-05
7.16494e-05
7.02023e-05
6.87543e-05
6.73133e-05
6.5889e-05
6.4489e-05
6.3122e-05
6.17971e-05
6.05213e-05
5.93046e-05
5.81523e-05
5.7072e-05
5.60809e-05
5.51775e-05
5.4389e-05
5.3715e-05
5.31896e-05
5.28501e-05
5.71185e-05
5.71626e-05
5.74913e-05
5.80283e-05
5.87471e-05
5.96406e-05
6.06549e-05
6.17923e-05
6.3015e-05
6.43165e-05
6.56837e-05
6.71064e-05
6.85801e-05
7.00893e-05
7.16237e-05
7.31729e-05
7.47281e-05
7.62799e-05
7.78209e-05
7.93444e-05
8.0844e-05
8.23125e-05
8.37462e-05
8.51385e-05
8.64888e-05
8.77913e-05
8.90453e-05
9.02479e-05
9.1399e-05
9.24985e-05
9.35447e-05
9.45377e-05
9.54771e-05
9.63635e-05
9.7197e-05
9.79783e-05
9.87083e-05
9.93875e-05
0.000100016
0.000100596
0.000101126
0.000101608
0.000102042
0.000102427
0.000102764
0.000103052
0.000103291
0.000103481
0.000103621
0.00010371
0.000103748
0.000103734
0.000103666
0.000103544
0.000103366
0.000103131
0.00010284
0.000102491
0.000102082
0.000101614
0.000101084
0.000100492
9.98379e-05
9.91204e-05
9.83396e-05
9.74958e-05
9.6589e-05
9.562e-05
9.45898e-05
9.34994e-05
9.23501e-05
9.1144e-05
8.98836e-05
8.85711e-05
8.72103e-05
8.58046e-05
8.43594e-05
8.2878e-05
8.13669e-05
7.98301e-05
7.82766e-05
7.67112e-05
7.51432e-05
7.35802e-05
7.20311e-05
7.05064e-05
6.90143e-05
6.75643e-05
6.61659e-05
6.48268e-05
6.35573e-05
6.23631e-05
6.12518e-05
6.02401e-05
5.93296e-05
5.85475e-05
5.78952e-05
5.74072e-05
5.71303e-05
6.16851e-05
6.18466e-05
6.23214e-05
6.3023e-05
6.39225e-05
6.50096e-05
6.62252e-05
6.75692e-05
6.8999e-05
7.05063e-05
7.20758e-05
7.36938e-05
7.5357e-05
7.70488e-05
7.87584e-05
8.04747e-05
8.21887e-05
8.38908e-05
8.55734e-05
8.72298e-05
8.88537e-05
9.04379e-05
9.19788e-05
9.347e-05
9.49112e-05
9.62967e-05
9.76262e-05
9.88969e-05
0.000100109
0.000101263
0.000102356
0.00010339
0.000104365
0.000105279
0.000106136
0.000106934
0.000107674
0.000108359
0.000108988
0.000109561
0.00011008
0.000110546
0.000110958
0.000111316
0.00011162
0.00011187
0.000112066
0.000112208
0.000112295
0.000112326
0.000112301
0.000112218
0.000112077
0.000111876
0.000111614
0.000111291
0.000110907
0.00011046
0.00010995
0.000109375
0.000108734
0.000108028
0.000107255
0.000106415
0.000105509
0.000104537
0.000103499
0.000102397
0.000101231
0.000100004
9.8716e-05
9.73708e-05
9.59709e-05
9.45192e-05
9.30201e-05
9.14776e-05
8.98976e-05
8.82841e-05
8.66443e-05
8.49827e-05
8.33094e-05
8.16297e-05
7.99538e-05
7.82901e-05
7.66482e-05
7.50396e-05
7.34728e-05
7.19582e-05
7.05056e-05
6.91231e-05
6.78215e-05
6.66054e-05
6.54829e-05
6.4472e-05
6.35754e-05
6.28209e-05
6.22113e-05
6.17815e-05
6.15869e-05
6.64873e-05
6.6786e-05
6.74247e-05
6.83089e-05
6.9405e-05
7.06999e-05
7.21288e-05
7.36891e-05
7.53331e-05
7.70507e-05
7.88243e-05
8.06377e-05
8.24876e-05
8.43574e-05
8.62358e-05
8.81115e-05
8.99753e-05
9.18175e-05
9.36309e-05
9.54087e-05
9.71447e-05
9.88321e-05
0.000100467
0.000102044
0.000103563
0.000105018
0.00010641
0.000107736
0.000108995
0.00011019
0.000111318
0.00011238
0.000113376
0.000114306
0.000115172
0.000115974
0.000116713
0.00011739
0.000118006
0.000118561
0.000119057
0.000119493
0.00011987
0.000120189
0.000120448
0.000120649
0.00012079
0.000120872
0.000120894
0.000120855
0.000120755
0.000120593
0.000120368
0.000120077
0.000119721
0.0001193
0.000118813
0.000118259
0.000117638
0.000116948
0.00011619
0.000115362
0.000114464
0.000113497
0.000112461
0.000111357
0.000110185
0.000108947
0.000107645
0.00010628
0.000104855
0.000103373
0.000101837
0.000100251
9.86194e-05
9.69471e-05
9.52407e-05
9.35047e-05
9.17471e-05
8.99731e-05
8.81934e-05
8.64143e-05
8.46464e-05
8.28992e-05
8.11828e-05
7.95094e-05
7.78883e-05
7.63301e-05
7.4845e-05
7.34416e-05
7.21296e-05
7.09128e-05
6.98017e-05
6.88143e-05
6.79536e-05
6.72481e-05
6.6702e-05
6.63513e-05
6.62585e-05
7.15629e-05
7.20162e-05
7.28346e-05
7.39165e-05
7.52219e-05
7.67352e-05
7.83857e-05
8.01677e-05
8.20288e-05
8.39567e-05
8.59321e-05
8.79367e-05
8.99661e-05
9.20054e-05
9.40426e-05
9.60665e-05
9.8068e-05
0.000100037
0.000101968
0.000103853
0.000105687
0.000107463
0.000109178
0.000110826
0.000112407
0.000113918
0.000115357
0.000116722
0.000118016
0.000119237
0.000120385
0.000121461
0.000122465
0.000123397
0.000124259
0.000125052
0.000125776
0.000126433
0.000127022
0.000127547
0.000128006
0.000128401
0.000128731
0.000128998
0.000129201
0.00012934
0.000129414
0.000129424
0.00012937
0.00012925
0.000129065
0.000128813
0.000128493
0.000128102
0.000127643
0.000127115
0.000126517
0.000125849
0.00012511
0.000124299
0.000123416
0.000122462
0.000121435
0.000120337
0.000119168
0.00011793
0.000116624
0.000115251
0.000113813
0.000112314
0.000110755
0.000109141
0.000107475
0.000105761
0.000104006
0.000102214
0.000100392
9.8546e-05
9.66844e-05
9.48132e-05
9.29437e-05
9.10828e-05
8.92419e-05
8.74312e-05
8.56614e-05
8.39453e-05
8.22926e-05
8.07143e-05
7.9221e-05
7.78199e-05
7.65197e-05
7.53266e-05
7.42504e-05
7.33093e-05
7.25065e-05
7.18714e-05
7.1409e-05
7.11574e-05
7.11842e-05
7.69475e-05
7.75699e-05
7.85804e-05
7.98712e-05
8.13951e-05
8.31332e-05
8.50091e-05
8.70135e-05
8.909e-05
9.12238e-05
9.33942e-05
9.55818e-05
9.77794e-05
9.99759e-05
0.000102159
0.000104316
0.00010644
0.000108522
0.000110553
0.000112529
0.000114445
0.000116293
0.000118071
0.000119774
0.000121403
0.000122952
0.000124423
0.000125814
0.000127126
0.000128359
0.000129513
0.000130588
0.000131586
0.000132507
0.000133351
0.000134121
0.000134816
0.000135439
0.000135991
0.000136471
0.000136881
0.000137222
0.000137494
0.000137697
0.000137832
0.000137897
0.000137894
0.000137822
0.000137681
0.00013747
0.00013719
0.000136838
0.000136413
0.000135915
0.000135345
0.000134703
0.000133987
0.000133198
0.000132335
0.000131398
0.000130387
0.000129302
0.000128144
0.000126913
0.000125611
0.00012424
0.0001228
0.000121294
0.000119725
0.000118096
0.00011641
0.000114671
0.000112883
0.000111053
0.000109185
0.000107285
0.000105363
0.000103423
0.000101474
9.95237e-05
9.75837e-05
9.56618e-05
9.37698e-05
9.19183e-05
9.01189e-05
8.83847e-05
8.67256e-05
8.51529e-05
8.36763e-05
8.23011e-05
8.1038e-05
7.9893e-05
7.88755e-05
7.80033e-05
7.72797e-05
7.67349e-05
7.6375e-05
7.62415e-05
7.64024e-05
8.26736e-05
8.34753e-05
8.46862e-05
8.6193e-05
8.79398e-05
8.99043e-05
9.20045e-05
9.42274e-05
9.65125e-05
9.88432e-05
0.000101197
0.000103556
0.000105907
0.000108245
0.000110556
0.000112831
0.00011506
0.000117235
0.00011935
0.0001214
0.000123379
0.000125281
0.000127106
0.000128847
0.000130505
0.000132078
0.000133565
0.000134965
0.000136279
0.000137509
0.000138654
0.000139715
0.000140692
0.000141587
0.0001424
0.000143134
0.000143788
0.000144365
0.000144864
0.000145289
0.000145638
0.000145913
0.000146115
0.000146243
0.000146298
0.00014628
0.000146189
0.000146025
0.000145787
0.000145477
0.000145093
0.000144632
0.000144095
0.000143482
0.000142795
0.000142031
0.000141192
0.000140278
0.000139288
0.000138222
0.00013708
0.000135864
0.000134574
0.000133211
0.000131778
0.000130275
0.000128706
0.000127073
0.000125379
0.000123627
0.000121822
0.000119968
0.000118071
0.000116136
0.000114171
0.00011218
0.000110174
0.000108158
0.000106142
0.000104134
0.000102146
0.000100187
9.82682e-05
9.64016e-05
9.45989e-05
9.28733e-05
9.12352e-05
8.96947e-05
8.82589e-05
8.69359e-05
8.57355e-05
8.4663e-05
8.3727e-05
8.29449e-05
8.23201e-05
8.18833e-05
8.16418e-05
8.16407e-05
8.19491e-05
8.87685e-05
8.97545e-05
9.11695e-05
9.28943e-05
9.48636e-05
9.70512e-05
9.93694e-05
0.000101802
0.000104284
0.000106798
0.000109321
0.000111833
0.00011432
0.000116781
0.000119203
0.000121575
0.00012389
0.000126139
0.000128318
0.000130422
0.000132446
0.000134385
0.000136237
0.000137998
0.00013967
0.000141249
0.000142735
0.000144129
0.000145431
0.000146642
0.000147764
0.000148795
0.000149738
0.000150593
0.000151362
0.000152046
0.000152646
0.000153164
0.000153601
0.000153957
0.000154234
0.000154432
0.000154553
0.000154596
0.000154561
0.00015445
0.000154261
0.000153996
0.000153655
0.000153236
0.00015274
0.000152164
0.000151509
0.000150776
0.000149965
0.000149077
0.000148111
0.000147069
0.000145949
0.000144753
0.000143481
0.000142134
0.000140714
0.000139223
0.000137662
0.000136034
0.000134342
0.000132588
0.000130778
0.000128915
0.000127003
0.000125048
0.000123056
0.000121033
0.000118987
0.000116924
0.000114854
0.000112784
0.000110725
0.000108683
0.000106673
0.000104703
0.000102785
0.000100931
9.91533e-05
9.74652e-05
9.5876e-05
9.43926e-05
9.30248e-05
9.17801e-05
9.06671e-05
8.96899e-05
8.88564e-05
8.81835e-05
8.76741e-05
8.73599e-05
8.72491e-05
8.73901e-05
8.78562e-05
9.52535e-05
9.64227e-05
9.80405e-05
9.998e-05
0.000102166
0.000104568
0.000107093
0.000109721
0.000112385
0.000115065
0.000117738
0.000120383
0.000122987
0.00012555
0.00012806
0.000130508
0.000132888
0.000135191
0.000137414
0.000139552
0.000141602
0.000143558
0.00014542
0.000147183
0.000148851
0.000150419
0.000151889
0.00015326
0.000154534
0.000155712
0.000156795
0.000157784
0.000158679
0.000159481
0.000160193
0.000160815
0.000161349
0.000161797
0.000162159
0.000162436
0.00016263
0.000162741
0.000162771
0.000162719
0.000162586
0.000162373
0.00016208
0.000161706
0.000161253
0.00016072
0.000160105
0.000159408
0.00015863
0.000157773
0.000156837
0.000155821
0.000154728
0.000153556
0.000152307
0.000150982
0.000149582
0.000148108
0.000146562
0.000144947
0.000143266
0.00014152
0.000139714
0.000137852
0.000135937
0.000133975
0.000131972
0.000129932
0.000127863
0.000125772
0.000123666
0.000121553
0.000119444
0.000117345
0.000115268
0.00011322
0.000111216
0.000109263
0.000107376
0.000105565
0.000103842
0.000102221
0.000100706
9.93077e-05
9.80345e-05
9.68928e-05
9.58898e-05
9.50284e-05
9.43154e-05
9.3767e-05
9.33859e-05
9.32044e-05
9.32322e-05
9.35209e-05
9.41496e-05
0.000102143
0.000103487
0.000105301
0.000107447
0.000109839
0.000112442
0.000115158
0.000117963
0.000120789
0.000123614
0.000126415
0.000129171
0.000131869
0.00013451
0.000137087
0.000139589
0.000142011
0.000144347
0.000146593
0.000148745
0.0001508
0.000152754
0.000154607
0.000156356
0.000158002
0.000159542
0.00016098
0.000162313
0.000163545
0.000164676
0.000165707
0.000166639
0.000167473
0.00016821
0.000168852
0.000169401
0.000169858
0.000170224
0.000170501
0.00017069
0.000170791
0.000170807
0.000170737
0.000170582
0.000170343
0.000170021
0.000169616
0.000169128
0.000168558
0.000167904
0.000167166
0.000166345
0.000165442
0.000164459
0.000163395
0.000162253
0.000161031
0.000159732
0.000158357
0.000156906
0.000155382
0.000153787
0.000152123
0.000150393
0.0001486
0.000146748
0.00014484
0.000142883
0.000140879
0.000138836
0.000136759
0.000134654
0.000132529
0.000130392
0.000128251
0.000126115
0.000123993
0.000121893
0.000119828
0.000117804
0.000115836
0.000113933
0.000112107
0.00011037
0.000108734
0.000107205
0.000105792
0.000104505
0.000103351
0.000102334
0.000101461
0.000100732
0.000100153
9.97401e-05
9.94952e-05
9.94516e-05
9.96205e-05
0.000100057
0.000100848
0.000109441
0.000110948
0.000112946
0.000115284
0.000117867
0.000120652
0.000123539
0.000126499
0.000129463
0.000132409
0.000135313
0.000138156
0.000140925
0.00014362
0.000146238
0.000148771
0.000151213
0.00015356
0.000155807
0.000157953
0.000159994
0.000161928
0.000163754
0.00016547
0.000167078
0.000168576
0.000169965
0.000171246
0.000172421
0.000173491
0.000174457
0.000175319
0.000176081
0.000176741
0.000177303
0.000177768
0.000178138
0.000178413
0.000178595
0.000178686
0.000178687
0.000178599
0.000178422
0.000178158
0.000177807
0.00017737
0.000176848
0.000176242
0.00017555
0.000174772
0.000173909
0.000172962
0.000171934
0.000170824
0.000169634
0.000168366
0.00016702
0.000165597
0.0001641
0.000162531
0.00016089
0.000159182
0.000157409
0.000155576
0.000153684
0.00015174
0.000149747
0.000147711
0.000145638
0.000143533
0.000141404
0.000139258
0.000137103
0.000134947
0.000132799
0.000130667
0.000128563
0.000126494
0.000124472
0.000122505
0.000120606
0.000118785
0.000117053
0.000115422
0.000113897
0.000112488
0.000111204
0.000110053
0.000109038
0.000108165
0.000107436
0.000106851
0.000106415
0.000106142
0.000106035
0.000106129
0.000106436
0.000107016
0.000107963
0.000117142
0.000118796
0.000120962
0.000123474
0.000126226
0.000129171
0.000132204
0.000135295
0.000138371
0.000141412
0.000144393
0.000147297
0.000150112
0.000152834
0.00015547
0.00015801
0.00016045
0.000162785
0.000165013
0.000167133
0.000169141
0.000171036
0.000172818
0.000174484
0.000176038
0.000177477
0.000178804
0.000180019
0.000181124
0.00018212
0.000183009
0.000183791
0.000184468
0.000185042
0.000185513
0.000185885
0.000186158
0.000186333
0.000186413
0.0001864
0.000186293
0.000186094
0.000185805
0.000185426
0.000184958
0.000184403
0.000183761
0.000183033
0.000182216
0.000181313
0.000180325
0.000179254
0.000178101
0.000176867
0.000175555
0.000174165
0.0001727
0.000171161
0.00016955
0.00016787
0.000166124
0.000164315
0.000162446
0.000160523
0.000158549
0.00015653
0.000154471
0.000152378
0.000150257
0.000148116
0.000145961
0.000143801
0.000141644
0.000139499
0.000137375
0.000135281
0.000133228
0.000131223
0.000129278
0.000127402
0.000125606
0.000123899
0.000122294
0.000120795
0.000119409
0.000118146
0.000117013
0.000116016
0.000115158
0.00011444
0.000113864
0.000113429
0.000113137
0.000113004
0.000113032
0.000113256
0.000113692
0.000114405
0.000115497
0.000125235
0.000127016
0.000129329
0.000131991
0.000134889
0.000137968
0.00014112
0.000144312
0.000147473
0.00015058
0.000153611
0.000156549
0.000159384
0.00016211
0.000164738
0.000167262
0.000169676
0.000171979
0.000174168
0.000176241
0.000178198
0.000180037
0.000181757
0.000183359
0.000184843
0.00018621
0.000187461
0.000188597
0.000189619
0.00019053
0.000191331
0.000192022
0.000192605
0.000193082
0.000193455
0.000193725
0.000193894
0.000193963
0.000193934
0.000193809
0.000193589
0.000193276
0.00019287
0.000192373
0.000191786
0.000191111
0.000190347
0.000189494
0.000188553
0.000187526
0.000186415
0.000185222
0.000183949
0.000182597
0.000181167
0.000179664
0.000178087
0.000176441
0.000174727
0.000172949
0.000171111
0.000169216
0.000167269
0.000165274
0.000163238
0.000161166
0.000159064
0.000156939
0.000154797
0.000152647
0.000150496
0.000148354
0.000146227
0.000144127
0.000142061
0.00014004
0.000138073
0.000136168
0.000134336
0.000132584
0.000130925
0.000129366
0.000127914
0.000126571
0.000125348
0.000124252
0.000123287
0.000122458
0.000121766
0.000121209
0.000120789
0.000120502
0.000120351
0.000120349
0.000120501
0.000120842
0.000121393
0.000122223
0.000123443
0.000133703
0.000135586
0.00013802
0.000140807
0.000143823
0.000147007
0.000150249
0.000153513
0.000156728
0.000159873
0.000162925
0.000165869
0.000168697
0.000171403
0.000174
0.000176484
0.000178852
0.000181101
0.000183231
0.00018524
0.000187128
0.000188893
0.000190537
0.000192059
0.00019346
0.000194741
0.000195904
0.000196949
0.000197878
0.000198694
0.000199396
0.000199988
0.000200469
0.000200842
0.000201108
0.000201269
0.000201328
0.000201285
0.000201143
0.000200903
0.000200566
0.000200135
0.00019961
0.000198994
0.000198286
0.00019749
0.000196604
0.000195628
0.000194566
0.000193419
0.00019219
0.00019088
0.000189493
0.000188029
0.000186492
0.000184884
0.000183208
0.000181467
0.000179665
0.000177805
0.000175892
0.00017393
0.000171925
0.000169882
0.000167807
0.000165708
0.00016359
0.000161462
0.00015933
0.000157204
0.000155091
0.000153
0.00015094
0.000148921
0.000146951
0.000145039
0.000143195
0.000141426
0.000139742
0.00013815
0.000136659
0.000135275
0.000133997
0.000132834
0.000131791
0.000130877
0.000130092
0.000129437
0.000128912
0.000128516
0.000128246
0.000128098
0.000128075
0.000128191
0.000128449
0.00012889
0.000129535
0.000130462
0.000131787
0.000142521
0.000144479
0.000147006
0.000149889
0.000152993
0.00015625
0.000159551
0.000162856
0.000166096
0.000169248
0.000172293
0.000175217
0.000178013
0.000180677
0.000183217
0.000185639
0.000187939
0.000190115
0.000192167
0.000194094
0.000195897
0.000197574
0.000199127
0.000200555
0.000201861
0.000203045
0.000204108
0.000205052
0.000205879
0.00020659
0.000207186
0.00020767
0.000208042
0.000208304
0.000208458
0.000208507
0.000208451
0.000208292
0.000208033
0.000207675
0.000207221
0.00020667
0.000206027
0.000205291
0.000204465
0.000203549
0.000202542
0.000201448
0.000200269
0.000199008
0.000197668
0.000196251
0.000194759
0.000193195
0.000191562
0.000189863
0.000188103
0.000186284
0.000184411
0.000182488
0.000180522
0.000178516
0.000176478
0.000174413
0.000172328
0.000170232
0.00016813
0.000166032
0.000163946
0.000161879
0.000159841
0.00015784
0.000155886