/*--------------------------------*- C++ -*----------------------------------*\
  =========                 |
  \\      /  F ield         | OpenFOAM: The Open Source CFD Toolbox
   \\    /   O peration     | Website:  https://openfoam.org
    \\  /    A nd           | Version:  7
     \\/     M anipulation  |
\*---------------------------------------------------------------------------*/
FoamFile
{
    version     2.0;
    format      ascii;
    class       volScalarField;
    location    "7258.82999998519063";
    object      p;
}
// * * * * * * * * * * * * * * * * * * * * * * * * * * * * * * * * * * * * * //

dimensions      [0 2 -2 0 0 0 0];

internalField   nonuniform List<scalar> 
14751
(
3.20128e-12
2.8461e-06
7.34518e-06
1.1597e-05
1.65574e-05
2.17051e-05
2.70725e-05
3.26309e-05
3.82163e-05
4.38318e-05
4.93789e-05
5.48179e-05
6.00966e-05
6.51689e-05
7.00092e-05
7.45857e-05
7.88873e-05
8.28963e-05
8.66116e-05
9.00273e-05
9.31532e-05
9.59837e-05
9.85409e-05
0.000100816
0.00010284
0.000104605
0.000106138
0.00010744
0.000108529
0.000109416
0.000110111
0.000110626
0.000110971
0.000111155
0.000111187
0.000111075
0.000110828
0.000110452
0.000109954
0.000109339
0.000108612
0.000107778
0.000106841
0.000105805
0.000104672
0.000103447
0.00010213
0.000100725
9.9233e-05
9.7656e-05
9.59946e-05
9.4251e-05
9.24249e-05
9.05187e-05
8.85317e-05
8.64662e-05
8.43211e-05
8.20991e-05
7.97988e-05
7.74237e-05
7.49717e-05
7.24468e-05
6.98479e-05
6.71788e-05
6.4439e-05
6.16323e-05
5.87599e-05
5.58246e-05
5.28305e-05
4.97797e-05
4.66779e-05
4.35277e-05
4.03381e-05
3.71097e-05
3.38576e-05
3.05784e-05
2.72983e-05
2.40073e-05
2.07427e-05
1.74897e-05
1.4296e-05
1.11525e-05
8.10123e-06
5.15523e-06
2.34224e-06
-3.01068e-07
-2.74809e-06
-4.96092e-06
-6.89634e-06
-8.52434e-06
-9.79769e-06
-1.06634e-05
-1.11547e-05
-1.10994e-05
-1.06895e-05
-9.60159e-06
-8.23957e-06
-5.98157e-06
-3.95649e-06
1.03894e-08
2.85606e-06
7.35198e-06
1.16007e-05
1.65584e-05
2.17029e-05
2.70678e-05
3.26235e-05
3.82066e-05
4.38199e-05
4.93649e-05
5.48021e-05
6.00792e-05
6.51501e-05
6.99892e-05
7.45648e-05
7.88657e-05
8.28742e-05
8.65891e-05
9.00046e-05
9.31304e-05
9.59611e-05
9.85185e-05
0.000100794
0.000102818
0.000104583
0.000106117
0.00010742
0.00010851
0.000109397
0.000110093
0.000110609
0.000110954
0.000111139
0.000111172
0.000111061
0.000110815
0.00011044
0.000109942
0.000109327
0.000108601
0.000107768
0.000106831
0.000105796
0.000104664
0.000103439
0.000102123
0.000100719
9.92273e-05
9.76511e-05
9.59903e-05
9.42474e-05
9.24221e-05
9.05166e-05
8.85304e-05
8.64658e-05
8.43214e-05
8.21003e-05
7.98009e-05
7.74267e-05
7.49756e-05
7.24517e-05
6.98539e-05
6.71858e-05
6.44471e-05
6.16415e-05
5.87702e-05
5.5836e-05
5.2843e-05
4.97934e-05
4.66927e-05
4.35437e-05
4.03553e-05
3.71282e-05
3.38772e-05
3.05991e-05
2.73202e-05
2.40303e-05
2.07668e-05
1.75148e-05
1.4322e-05
1.11794e-05
8.12891e-06
5.1836e-06
2.37117e-06
-2.71755e-07
-2.71855e-06
-4.93135e-06
-6.86698e-06
-8.49543e-06
-9.76955e-06
-1.06362e-05
-1.11287e-05
-1.10749e-05
-1.06666e-05
-9.58052e-06
-8.22057e-06
-5.9639e-06
-3.94123e-06
1.9137e-08
2.86228e-06
7.35575e-06
1.16009e-05
1.65558e-05
2.16973e-05
2.70597e-05
3.26131e-05
3.81942e-05
4.38058e-05
4.93492e-05
5.47849e-05
6.00608e-05
6.51306e-05
6.99689e-05
7.45439e-05
7.88444e-05
8.28526e-05
8.65674e-05
8.9983e-05
9.31089e-05
9.59398e-05
9.84975e-05
0.000100773
0.000102798
0.000104564
0.000106098
0.000107402
0.000108492
0.000109381
0.000110077
0.000110594
0.00011094
0.000111125
0.000111159
0.000111049
0.000110803
0.000110429
0.000109931
0.000109318
0.000108592
0.00010776
0.000106823
0.000105789
0.000104657
0.000103433
0.000102118
0.000100714
9.92232e-05
9.76475e-05
9.59874e-05
9.42451e-05
9.24205e-05
9.05157e-05
8.85301e-05
8.64662e-05
8.43225e-05
8.21022e-05
7.98035e-05
7.74301e-05
7.49798e-05
7.24568e-05
6.98599e-05
6.71926e-05
6.44549e-05
6.16502e-05
5.87799e-05
5.58467e-05
5.28547e-05
4.98061e-05
4.67065e-05
4.35586e-05
4.03712e-05
3.71451e-05
3.38952e-05
3.06183e-05
2.73404e-05
2.40514e-05
2.07889e-05
1.75378e-05
1.43458e-05
1.12039e-05
8.15395e-06
5.20916e-06
2.39711e-06
-2.45567e-07
-2.69226e-06
-4.90514e-06
-6.84106e-06
-8.47001e-06
-9.74489e-06
-1.06124e-05
-1.11061e-05
-1.10535e-05
-1.06469e-05
-9.56246e-06
-8.20461e-06
-5.9492e-06
-3.93002e-06
2.70126e-08
2.86626e-06
7.35746e-06
1.15989e-05
1.65508e-05
2.16895e-05
2.70491e-05
3.26005e-05
3.81798e-05
4.37899e-05
4.93318e-05
5.47663e-05
6.00411e-05
6.511e-05
6.99476e-05
7.45222e-05
7.88223e-05
8.28304e-05
8.65452e-05
8.99607e-05
9.30869e-05
9.59179e-05
9.8476e-05
0.000100752
0.000102777
0.000104544
0.000106079
0.000107383
0.000108474
0.000109363
0.000110061
0.000110578
0.000110925
0.000111111
0.000111146
0.000111036
0.000110791
0.000110418
0.000109921
0.000109308
0.000108583
0.000107751
0.000106816
0.000105782
0.000104651
0.000103428
0.000102113
0.00010071
9.92194e-05
9.76444e-05
9.5985e-05
9.42434e-05
9.24194e-05
9.05153e-05
8.85305e-05
8.64673e-05
8.43244e-05
8.21048e-05
7.9807e-05
7.74344e-05
7.4985e-05
7.24629e-05
6.98669e-05
6.72006e-05
6.44638e-05
6.16602e-05
5.87909e-05
5.58587e-05
5.28678e-05
4.98203e-05
4.67218e-05
4.3575e-05
4.03888e-05
3.71638e-05
3.39151e-05
3.06392e-05
2.73624e-05
2.40744e-05
2.08128e-05
1.75625e-05
1.43711e-05
1.12298e-05
8.18029e-06
5.2358e-06
2.42392e-06
-2.18728e-07
-2.66555e-06
-4.87876e-06
-6.81519e-06
-8.4449e-06
-9.72074e-06
-1.05894e-05
-1.10844e-05
-1.10332e-05
-1.06284e-05
-9.54565e-06
-8.18997e-06
-5.9361e-06
-3.92129e-06
3.46686e-08
2.86901e-06
7.35763e-06
1.15951e-05
1.65435e-05
2.16793e-05
2.7036e-05
3.25852e-05
3.81625e-05
4.3771e-05
4.93116e-05
5.47447e-05
6.00184e-05
6.50864e-05
6.99233e-05
7.44974e-05
7.87973e-05
8.28052e-05
8.65199e-05
8.99356e-05
9.30618e-05
9.58931e-05
9.84515e-05
0.000100728
0.000102754
0.000104521
0.000106057
0.000107361
0.000108454
0.000109344
0.000110042
0.00011056
0.000110908
0.000111095
0.00011113
0.000111022
0.000110778
0.000110405
0.000109909
0.000109297
0.000108573
0.000107742
0.000106807
0.000105774
0.000104644
0.000103421
0.000102107
0.000100705
9.92155e-05
9.76413e-05
9.59826e-05
9.42418e-05
9.24187e-05
9.05154e-05
8.85315e-05
8.64692e-05
8.43272e-05
8.21086e-05
7.98117e-05
7.74402e-05
7.49918e-05
7.24708e-05
6.98759e-05
6.72107e-05
6.44751e-05
6.16727e-05
5.88046e-05
5.58737e-05
5.28841e-05
4.98379e-05
4.67407e-05
4.35951e-05
4.04102e-05
3.71866e-05
3.39391e-05
3.06645e-05
2.73888e-05
2.41019e-05
2.08413e-05
1.75918e-05
1.44011e-05
1.12602e-05
8.21103e-06
5.26669e-06
2.45478e-06
-1.88049e-07
-2.63525e-06
-4.84908e-06
-6.78632e-06
-8.41713e-06
-9.69426e-06
-1.05643e-05
-1.10611e-05
-1.10115e-05
-1.06089e-05
-9.52819e-06
-8.17489e-06
-5.92305e-06
-3.91355e-06
4.15744e-08
2.87021e-06
7.35581e-06
1.15892e-05
1.65337e-05
2.16663e-05
2.70198e-05
3.25667e-05
3.8142e-05
4.37489e-05
4.9288e-05
5.47198e-05
5.99924e-05
6.50595e-05
6.98957e-05
7.44693e-05
7.8769e-05
8.27768e-05
8.64915e-05
8.99073e-05
9.30337e-05
9.58652e-05
9.8424e-05
0.000100701
0.000102727
0.000104495
0.000106032
0.000107337
0.000108431
0.000109321
0.000110021
0.00011054
0.000110889
0.000111077
0.000111113
0.000111006
0.000110763
0.000110391
0.000109896
0.000109285
0.000108561
0.000107732
0.000106798
0.000105766
0.000104636
0.000103415
0.000102101
0.0001007
9.92115e-05
9.76382e-05
9.59804e-05
9.42406e-05
9.24185e-05
9.05162e-05
8.85333e-05
8.64721e-05
8.43312e-05
8.21137e-05
7.9818e-05
7.74476e-05
7.50005e-05
7.24807e-05
6.98871e-05
6.72233e-05
6.4489e-05
6.1688e-05
5.88213e-05
5.58918e-05
5.29037e-05
4.98589e-05
4.67632e-05
4.36191e-05
4.04357e-05
3.72135e-05
3.39675e-05
3.06942e-05
2.74198e-05
2.4134e-05
2.08744e-05
1.76256e-05
1.44356e-05
1.1295e-05
8.24601e-06
5.30165e-06
2.48949e-06
-1.53758e-07
-2.60161e-06
-4.81637e-06
-6.75474e-06
-8.38703e-06
-9.66577e-06
-1.05376e-05
-1.10365e-05
-1.09888e-05
-1.05888e-05
-9.51046e-06
-8.15977e-06
-5.91046e-06
-3.90715e-06
4.69216e-08
2.86919e-06
7.3513e-06
1.15805e-05
1.65208e-05
2.16502e-05
2.70003e-05
3.25449e-05
3.81181e-05
4.37233e-05
4.92609e-05
5.46915e-05
5.9963e-05
6.50293e-05
6.9865e-05
7.44382e-05
7.87377e-05
8.27455e-05
8.64604e-05
8.98763e-05
9.3003e-05
9.58348e-05
9.8394e-05
0.000100672
0.000102699
0.000104467
0.000106005
0.000107311
0.000108405
0.000109297
0.000109998
0.000110518
0.000110868
0.000111057
0.000111095
0.000110988
0.000110747
0.000110376
0.000109882
0.000109272
0.00010855
0.000107721
0.000106788
0.000105757
0.000104629
0.000103408
0.000102096
0.000100696
9.92078e-05
9.76355e-05
9.59789e-05
9.42402e-05
9.24192e-05
9.0518e-05
8.85363e-05
8.64762e-05
8.43366e-05
8.21203e-05
7.98259e-05
7.74569e-05
7.50112e-05
7.24928e-05
6.99006e-05
6.72383e-05
6.45056e-05
6.1706e-05
5.8841e-05
5.5913e-05
5.29264e-05
4.98833e-05
4.67891e-05
4.36467e-05
4.04648e-05
3.72442e-05
3.39997e-05
3.07278e-05
2.74547e-05
2.417e-05
2.09114e-05
1.76633e-05
1.44738e-05
1.13334e-05
8.28445e-06
5.33985e-06
2.52719e-06
-1.16758e-07
-2.56558e-06
-4.78158e-06
-6.72142e-06
-8.35556e-06
-9.63627e-06
-1.05102e-05
-1.10115e-05
-1.09661e-05
-1.0569e-05
-9.49338e-06
-8.14545e-06
-5.89917e-06
-3.90281e-06
4.99234e-08
2.86538e-06
7.34347e-06
1.15686e-05
1.65043e-05
2.16303e-05
2.6977e-05
3.25193e-05
3.80904e-05
4.3694e-05
4.92303e-05
5.46597e-05
5.99303e-05
6.49959e-05
6.98311e-05
7.44041e-05
7.87036e-05
8.27116e-05
8.64266e-05
8.98428e-05
9.29699e-05
9.58022e-05
9.8362e-05
0.00010064
0.000102668
0.000104437
0.000105976
0.000107283
0.000108379
0.000109272
0.000109973
0.000110495
0.000110846
0.000111036
0.000111075
0.00011097
0.00011073
0.00011036
0.000109868
0.000109259
0.000108537
0.00010771
0.000106778
0.000105748
0.000104621
0.000103401
0.00010209
0.000100691
9.92047e-05
9.76336e-05
9.59782e-05
9.42407e-05
9.24209e-05
9.05211e-05
8.85407e-05
8.64819e-05
8.43436e-05
8.21288e-05
7.98358e-05
7.74682e-05
7.5024e-05
7.25072e-05
6.99166e-05
6.72559e-05
6.45248e-05
6.17269e-05
5.88635e-05
5.59373e-05
5.29524e-05
4.99109e-05
4.68185e-05
4.36777e-05
4.04975e-05
3.72785e-05
3.40355e-05
3.0765e-05
2.74933e-05
2.42096e-05
2.0952e-05
1.77044e-05
1.45153e-05
1.1375e-05
8.32575e-06
5.38066e-06
2.56721e-06
-7.7732e-08
-2.52784e-06
-4.74545e-06
-6.68713e-06
-8.3235e-06
-9.60652e-06
-1.04829e-05
-1.0987e-05
-1.09443e-05
-1.05502e-05
-9.4777e-06
-8.13267e-06
-5.88993e-06
-3.90116e-06
4.97884e-08
2.85822e-06
7.33166e-06
1.15529e-05
1.64836e-05
2.16062e-05
2.69495e-05
3.24895e-05
3.80588e-05
4.36607e-05
4.91958e-05
5.46242e-05
5.9894e-05
6.49591e-05
6.97941e-05
7.43671e-05
7.86668e-05
8.26751e-05
8.63906e-05
8.98072e-05
9.29348e-05
9.57677e-05
9.83282e-05
0.000100607
0.000102636
0.000104406
0.000105945
0.000107254
0.000108351
0.000109245
0.000109948
0.000110471
0.000110823
0.000111015
0.000111055
0.000110952
0.000110712
0.000110344
0.000109853
0.000109245
0.000108525
0.000107699
0.000106768
0.00010574
0.000104614
0.000103396
0.000102086
0.000100688
9.92026e-05
9.76328e-05
9.59787e-05
9.42425e-05
9.24242e-05
9.05257e-05
8.85466e-05
8.64893e-05
8.43525e-05
8.21392e-05
7.98478e-05
7.74818e-05
7.50393e-05
7.25241e-05
6.99352e-05
6.72763e-05
6.45469e-05
6.17508e-05
5.88891e-05
5.59647e-05
5.29815e-05
4.99418e-05
4.68511e-05
4.3712e-05
4.05336e-05
3.73162e-05
3.40747e-05
3.08057e-05
2.75352e-05
2.42526e-05
2.09957e-05
1.77486e-05
1.45596e-05
1.14191e-05
8.36943e-06
5.42357e-06
2.60902e-06
-3.72599e-08
-2.48903e-06
-4.70862e-06
-6.65252e-06
-8.29153e-06
-9.57722e-06
-1.04565e-05
-1.09637e-05
-1.09239e-05
-1.05332e-05
-9.46417e-06
-8.12215e-06
-5.88346e-06
-3.90277e-06
4.57058e-08
2.84714e-06
7.31525e-06
1.15328e-05
1.64584e-05
2.15774e-05
2.69173e-05
3.2455e-05
3.80227e-05
4.36232e-05
4.91572e-05
5.45848e-05
5.98541e-05
6.49189e-05
6.97539e-05
7.43272e-05
7.86274e-05
8.26363e-05
8.63524e-05
8.97697e-05
9.28981e-05
9.57317e-05
9.8293e-05
0.000100573
0.000102602
0.000104374
0.000105914
0.000107224
0.000108322
0.000109218
0.000109922
0.000110447
0.000110801
0.000110994
0.000111036
0.000110933
0.000110695
0.000110328
0.000109839
0.000109232
0.000108514
0.000107689
0.000106759
0.000105732
0.000104608
0.000103391
0.000102082
0.000100686
9.92017e-05
9.76334e-05
9.59806e-05
9.42459e-05
9.24291e-05
9.05321e-05
8.85545e-05
8.64988e-05
8.43636e-05
8.21519e-05
7.98622e-05
7.74979e-05
7.50571e-05
7.25437e-05
6.99566e-05
6.72995e-05
6.45719e-05
6.17776e-05
5.89178e-05
5.59952e-05
5.30139e-05
4.9976e-05
4.68871e-05
4.37497e-05
4.05729e-05
3.73572e-05
3.41172e-05
3.08495e-05
2.75802e-05
2.42985e-05
2.10423e-05
1.77954e-05
1.46064e-05
1.14655e-05
8.41501e-06
5.46807e-06
2.65207e-06
4.0781e-09
-2.44974e-06
-4.67171e-06
-6.61826e-06
-8.26031e-06
-9.54906e-06
-1.04316e-05
-1.09422e-05
-1.09058e-05
-1.05187e-05
-9.45352e-06
-8.11461e-06
-5.88048e-06
-3.90824e-06
3.68359e-08
2.83154e-06
7.29357e-06
1.15078e-05
1.64279e-05
2.15434e-05
2.68801e-05
3.24156e-05
3.79818e-05
4.35812e-05
4.91144e-05
5.45414e-05
5.98106e-05
6.48754e-05
6.97108e-05
7.42847e-05
7.85856e-05
8.25954e-05
8.63124e-05
8.97307e-05
9.286e-05
9.56945e-05
9.82568e-05
0.000100538
0.000102568
0.000104341
0.000105883
0.000107194
0.000108294
0.000109191
0.000109897
0.000110423
0.000110778
0.000110973
0.000111016
0.000110915
0.000110679
0.000110313
0.000109825
0.00010922
0.000108503
0.000107679
0.000106752
0.000105726
0.000104602
0.000103387
0.00010208
0.000100685
9.92025e-05
9.76356e-05
9.59844e-05
9.42513e-05
9.2436e-05
9.05406e-05
8.85646e-05
8.65106e-05
8.43771e-05
8.21671e-05
7.98791e-05
7.75167e-05
7.50777e-05
7.25662e-05
6.99809e-05
6.73257e-05
6.46e-05
6.18076e-05
5.89497e-05
5.60289e-05
5.30495e-05
5.00134e-05
4.69262e-05
4.37906e-05
4.06155e-05
3.74013e-05
3.41628e-05
3.08963e-05
2.7628e-05
2.43471e-05
2.10914e-05
1.78445e-05
1.46552e-05
1.15136e-05
8.46201e-06
5.51363e-06
2.69579e-06
4.56881e-08
-2.4106e-06
-4.63539e-06
-6.58502e-06
-8.23055e-06
-9.52277e-06
-1.0409e-05
-1.09234e-05
-1.08907e-05
-1.05073e-05
-9.44649e-06
-8.1108e-06
-5.88175e-06
-3.91818e-06
2.23473e-08
2.81079e-06
7.26598e-06
1.14771e-05
1.63917e-05
2.15036e-05
2.68374e-05
3.23707e-05
3.79358e-05
4.35344e-05
4.90671e-05
5.44939e-05
5.97633e-05
6.48287e-05
6.96648e-05
7.42397e-05
7.85417e-05
8.25527e-05
8.6271e-05
8.96905e-05
9.2821e-05
9.56567e-05
9.82202e-05
0.000100502
0.000102534
0.000104308
0.000105852
0.000107164
0.000108266
0.000109164
0.000109872
0.000110399
0.000110756
0.000110953
0.000110997
0.000110898
0.000110663
0.000110299
0.000109813
0.000109209
0.000108493
0.000107671
0.000106745
0.000105721
0.000104599
0.000103385
0.000102079
0.000100686
9.92051e-05
9.76398e-05
9.59902e-05
9.42588e-05
9.24451e-05
9.05514e-05
8.85772e-05
8.65249e-05
8.43932e-05
8.2185e-05
7.98989e-05
7.75383e-05
7.51012e-05
7.25916e-05
7.00083e-05
6.7355e-05
6.46312e-05
6.18408e-05
5.89847e-05
5.60659e-05
5.30882e-05
5.0054e-05
4.69685e-05
4.38346e-05
4.0661e-05
3.74483e-05
3.42112e-05
3.09459e-05
2.76785e-05
2.43981e-05
2.11426e-05
1.78955e-05
1.47057e-05
1.1563e-05
8.50993e-06
5.55971e-06
2.73961e-06
8.69657e-08
-2.37226e-06
-4.60031e-06
-6.55351e-06
-8.20297e-06
-9.49908e-06
-1.03894e-05
-1.09079e-05
-1.08794e-05
-1.04999e-05
-9.4438e-06
-8.11138e-06
-5.88803e-06
-3.93323e-06
1.43588e-09
2.78425e-06
7.23185e-06
1.14403e-05
1.63493e-05
2.14576e-05
2.67887e-05
3.23201e-05
3.78845e-05
4.34826e-05
4.90154e-05
5.44424e-05
5.97124e-05
6.47787e-05
6.96161e-05
7.41924e-05
7.8496e-05
8.25087e-05
8.62286e-05
8.96497e-05
9.27815e-05
9.56188e-05
9.81837e-05
0.000100467
0.000102501
0.000104276
0.000105821
0.000107136
0.000108238
0.000109139
0.000109848
0.000110377
0.000110736
0.000110934
0.00011098
0.000110882
0.000110649
0.000110287
0.000109802
0.0001092
0.000108486
0.000107665
0.00010674
0.000105717
0.000104597
0.000103385
0.000102081
0.000100689
9.921e-05
9.76464e-05
9.59985e-05
9.42687e-05
9.24568e-05
9.05648e-05
8.85924e-05
8.65419e-05
8.44121e-05
8.22059e-05
7.99217e-05
7.7563e-05
7.51279e-05
7.26202e-05
7.00388e-05
6.73876e-05
6.46657e-05
6.18772e-05
5.90231e-05
5.61061e-05
5.31302e-05
5.00977e-05
4.7014e-05
4.38816e-05
4.07095e-05
3.74982e-05
3.42623e-05
3.0998e-05
2.77312e-05
2.44512e-05
2.11957e-05
1.79481e-05
1.47573e-05
1.16132e-05
8.55825e-06
5.60577e-06
2.78297e-06
1.27295e-07
-2.33535e-06
-4.56717e-06
-6.52443e-06
-8.17829e-06
-9.47882e-06
-1.03739e-05
-1.08967e-05
-1.08729e-05
-1.04972e-05
-9.44627e-06
-8.11711e-06
-5.90004e-06
-3.95406e-06
-2.66834e-08
2.75125e-06
7.19054e-06
1.13966e-05
1.63e-05
2.14049e-05
2.67336e-05
3.22634e-05
3.78275e-05
4.34257e-05
4.8959e-05
5.43868e-05
5.96579e-05
6.47258e-05
6.95649e-05
7.41432e-05
7.84489e-05
8.24637e-05
8.61855e-05
8.96085e-05
9.27422e-05
9.55812e-05
9.81477e-05
0.000100433
0.000102468
0.000104245
0.000105792
0.000107108
0.000108212
0.000109115
0.000109825
0.000110356
0.000110717
0.000110916
0.000110964
0.000110868
0.000110637
0.000110276
0.000109793
0.000109192
0.00010848
0.000107661
0.000106738
0.000105716
0.000104598
0.000103387
0.000102085
0.000100695
9.92174e-05
9.76555e-05
9.60095e-05
9.42815e-05
9.24713e-05
9.05812e-05
8.86106e-05
8.65621e-05
8.44341e-05
8.22298e-05
7.99476e-05
7.75909e-05
7.51578e-05
7.26522e-05
7.00728e-05
6.74235e-05
6.47035e-05
6.1917e-05
5.90647e-05
5.61495e-05
5.31754e-05
5.01446e-05
4.70624e-05
4.39315e-05
4.07608e-05
3.75508e-05
3.43158e-05
3.10523e-05
2.77859e-05
2.4506e-05
2.12501e-05
1.80018e-05
1.48096e-05
1.16637e-05
8.60648e-06
5.65125e-06
2.82526e-06
1.66043e-07
-2.30055e-06
-4.53665e-06
-6.49851e-06
-8.15735e-06
-9.46285e-06
-1.0363e-05
-1.08905e-05
-1.08717e-05
-1.05001e-05
-9.45476e-06
-8.12876e-06
-5.91853e-06
-3.98136e-06
-6.27281e-08
2.7111e-06
7.14146e-06
1.13455e-05
1.62435e-05
2.1345e-05
2.66719e-05
3.22003e-05
3.77647e-05
4.33636e-05
4.8898e-05
5.43272e-05
5.96001e-05
6.46701e-05
6.95116e-05
7.40924e-05
7.84007e-05
8.24181e-05
8.61424e-05
8.95677e-05
9.27035e-05
9.55445e-05
9.81129e-05
0.0001004
0.000102437
0.000104216
0.000105764
0.000107082
0.000108189
0.000109093
0.000109805
0.000110338
0.0001107
0.000110901
0.000110951
0.000110857
0.000110627
0.000110268
0.000109786
0.000109187
0.000108476
0.000107659
0.000106738
0.000105718
0.000104601
0.000103392
0.000102092
0.000100703
9.92277e-05
9.76677e-05
9.60235e-05
9.42973e-05
9.24889e-05
9.06007e-05
8.86321e-05
8.65855e-05
8.44595e-05
8.22572e-05
7.9977e-05
7.76223e-05
7.51913e-05
7.26876e-05
7.01102e-05
6.74629e-05
6.47448e-05
6.19601e-05
5.91097e-05
5.61963e-05
5.32238e-05
5.01946e-05
4.71138e-05
4.39843e-05
4.08148e-05
3.76058e-05
3.43716e-05
3.11086e-05
2.78424e-05
2.45623e-05
2.13057e-05
1.80562e-05
1.48622e-05
1.17141e-05
8.65408e-06
5.69559e-06
2.86588e-06
2.02562e-07
-2.26853e-06
-4.50947e-06
-6.47655e-06
-8.141e-06
-9.45196e-06
-1.03577e-05
-1.08901e-05
-1.08769e-05
-1.05094e-05
-9.4701e-06
-8.14713e-06
-5.94426e-06
-4.01585e-06
-1.07387e-07
2.6631e-06
7.084e-06
1.12864e-05
1.61791e-05
2.12775e-05
2.66031e-05
3.21306e-05
3.7696e-05
4.32961e-05
4.88325e-05
5.42637e-05
5.9539e-05
6.4612e-05
6.94565e-05
7.40405e-05
7.8352e-05
8.23725e-05
8.60997e-05
8.95278e-05
9.2666e-05
9.55094e-05
9.80799e-05
0.000100369
0.000102408
0.000104189
0.000105739
0.000107059
0.000108167
0.000109073
0.000109788
0.000110322
0.000110686
0.000110889
0.000110941
0.000110848
0.00011062
0.000110263
0.000109782
0.000109185
0.000108476
0.00010766
0.000106741
0.000105723
0.000104608
0.0001034
0.000102102
0.000100715
9.92413e-05
9.76831e-05
9.60407e-05
9.43163e-05
9.25099e-05
9.06236e-05
8.8657e-05
8.66124e-05
8.44885e-05
8.22882e-05
8.00101e-05
7.76574e-05
7.52284e-05
7.27267e-05
7.01512e-05
6.75058e-05
6.47897e-05
6.20068e-05
5.91581e-05
5.62463e-05
5.32754e-05
5.02476e-05
4.71682e-05
4.40398e-05
4.08713e-05
3.76631e-05
3.44294e-05
3.11668e-05
2.79003e-05
2.46198e-05
2.1362e-05
1.81109e-05
1.49147e-05
1.17639e-05
8.70049e-06
5.73819e-06
2.90421e-06
2.36192e-07
-2.24e-06
-4.48642e-06
-6.45944e-06
-8.13001e-06
-9.44688e-06
-1.03587e-05
-1.08963e-05
-1.08893e-05
-1.05259e-05
-9.49311e-06
-8.173e-06
-5.97801e-06
-4.05825e-06
-1.61272e-07
2.60655e-06
7.01763e-06
1.12187e-05
1.61064e-05
2.12021e-05
2.6527e-05
3.20541e-05
3.76213e-05
4.32233e-05
4.87624e-05
5.41966e-05
5.94751e-05
6.45517e-05
6.94e-05
7.3988e-05
7.83032e-05
8.23275e-05
8.60581e-05
8.94894e-05
9.26304e-05
9.54766e-05
9.80494e-05
0.000100341
0.000102382
0.000104165
0.000105718
0.000107039
0.000108149
0.000109057
0.000109774
0.00011031
0.000110676
0.00011088
0.000110934
0.000110843
0.000110616
0.00011026
0.000109782
0.000109187
0.000108479
0.000107665
0.000106747
0.000105731
0.000104618
0.000103412
0.000102115
0.00010073
9.92584e-05
9.77021e-05
9.60616e-05
9.4339e-05
9.25346e-05
9.06503e-05
8.86857e-05
8.66431e-05
8.45212e-05
8.2323e-05
8.00469e-05
7.76962e-05
7.52692e-05
7.27696e-05
7.0196e-05
6.75525e-05
6.48382e-05
6.2057e-05
5.92099e-05
5.62997e-05
5.33301e-05
5.03036e-05
4.72253e-05
4.40978e-05
4.09301e-05
3.77225e-05
3.4489e-05
3.12264e-05
2.79593e-05
2.4678e-05
2.14186e-05
1.81656e-05
1.49665e-05
1.18125e-05
8.74517e-06
5.77845e-06
2.9396e-06
2.66264e-07
-2.21571e-06
-4.46836e-06
-6.44794e-06
-8.1251e-06
-9.44843e-06
-1.03669e-05
-1.091e-05
-1.09096e-05
-1.05504e-05
-9.52463e-06
-8.20727e-06
-6.02054e-06
-4.1092e-06
-2.24969e-07
2.54073e-06
6.94177e-06
1.1142e-05
1.60251e-05
2.11184e-05
2.64433e-05
3.19707e-05
3.75404e-05
4.31453e-05
4.8688e-05
5.4126e-05
5.94085e-05
6.44896e-05
6.93425e-05
7.39352e-05
7.8255e-05
8.22836e-05
8.60182e-05
8.94532e-05
9.25974e-05
9.54466e-05
9.80221e-05
0.000100316
0.000102359
0.000104145
0.000105699
0.000107023
0.000108135
0.000109045
0.000109763
0.000110301
0.000110669
0.000110875
0.00011093
0.000110841
0.000110616
0.000110262
0.000109785
0.000109192
0.000108486
0.000107673
0.000106757
0.000105743
0.000104631
0.000103427
0.000102132
0.000100749
9.92794e-05
9.7725e-05
9.60863e-05
9.43657e-05
9.25633e-05
9.0681e-05
8.87184e-05
8.66778e-05
8.4558e-05
8.23618e-05
8.00878e-05
7.77391e-05
7.53141e-05
7.28164e-05
7.02447e-05
6.7603e-05
6.48904e-05
6.21108e-05
5.92652e-05
5.63563e-05
5.3388e-05
5.03625e-05
4.72851e-05
4.41584e-05
4.09911e-05
3.77839e-05
3.45502e-05
3.12872e-05
2.80192e-05
2.47366e-05
2.14751e-05
1.82196e-05
1.50172e-05
1.18594e-05
8.78754e-06
5.81579e-06
2.97143e-06
2.92047e-07
-2.19652e-06
-4.45604e-06
-6.44272e-06
-8.12706e-06
-9.45744e-06
-1.03831e-05
-1.0932e-05
-1.09388e-05
-1.05838e-05
-9.56548e-06
-8.25076e-06
-6.07262e-06
-4.16937e-06
-2.99024e-07
2.46498e-06
6.85595e-06
1.10557e-05
1.59347e-05
2.10261e-05
2.63518e-05
3.18801e-05
3.74534e-05
4.3062e-05
4.86094e-05
5.40522e-05
5.93398e-05
6.44263e-05
6.92846e-05
7.38828e-05
7.82078e-05
8.22414e-05
8.59806e-05
8.94197e-05
9.25676e-05
9.54202e-05
9.79985e-05
0.000100296
0.000102341
0.000104129
0.000105686
0.000107012
0.000108126
0.000109038
0.000109758
0.000110297
0.000110667
0.000110875
0.000110932
0.000110844
0.000110621
0.000110268
0.000109793
0.000109201
0.000108497
0.000107686
0.000106771
0.000105759
0.000104649
0.000103447
0.000102154
0.000100773
9.93046e-05
9.7752e-05
9.61152e-05
9.43966e-05
9.25962e-05
9.07159e-05
8.87554e-05
8.67168e-05
8.45991e-05
8.24049e-05
8.01329e-05
7.77862e-05
7.53632e-05
7.28672e-05
7.02974e-05
6.76573e-05
6.49463e-05
6.21682e-05
5.93239e-05
5.64163e-05
5.3449e-05
5.04244e-05
4.73476e-05
4.42213e-05
4.10541e-05
3.78469e-05
3.46126e-05
3.1349e-05
2.80795e-05
2.47952e-05
2.15311e-05
1.82727e-05
1.50663e-05
1.19041e-05
8.82705e-06
5.84959e-06
2.999e-06
3.1271e-07
-2.18315e-06
-4.45009e-06
-6.44456e-06
-8.13669e-06
-9.47473e-06
-1.04081e-05
-1.09632e-05
-1.09778e-05
-1.06269e-05
-9.61647e-06
-8.30428e-06
-6.13498e-06
-4.23944e-06
-3.83985e-07
2.37864e-06
6.75962e-06
1.09595e-05
1.58348e-05
2.0925e-05
2.62523e-05
3.17824e-05
3.73602e-05
4.29737e-05
4.85267e-05
5.39756e-05
5.92691e-05
6.4362e-05
6.92268e-05
7.38314e-05
7.81624e-05
8.22017e-05
8.5946e-05
8.93899e-05
9.25418e-05
9.53982e-05
9.79796e-05
0.00010028
0.000102328
0.000104118
0.000105677
0.000107006
0.000108122
0.000109035
0.000109757
0.000110299
0.00011067
0.00011088
0.000110938
0.000110852
0.00011063
0.000110279
0.000109805
0.000109215
0.000108512
0.000107703
0.00010679
0.000105779
0.000104671
0.000103471
0.00010218
0.000100801
9.93343e-05
9.77834e-05
9.61486e-05
9.4432e-05
9.26336e-05
9.07554e-05
8.87969e-05
8.67604e-05
8.46447e-05
8.24525e-05
8.01825e-05
7.78376e-05
7.54165e-05
7.29224e-05
7.03542e-05
6.77157e-05
6.50062e-05
6.22294e-05
5.93862e-05
5.64796e-05
5.3513e-05
5.0489e-05
4.74125e-05
4.42863e-05
4.1119e-05
3.79113e-05
3.46762e-05
3.14114e-05
2.81399e-05
2.48536e-05
2.15862e-05
1.83243e-05
1.51132e-05
1.19461e-05
8.86314e-06
5.87923e-06
3.02152e-06
3.27548e-07
-2.17617e-06
-4.45123e-06
-6.45421e-06
-8.15479e-06
-9.50111e-06
-1.04429e-05
-1.10044e-05
-1.10272e-05
-1.06806e-05
-9.67839e-06
-8.3686e-06
-6.20836e-06
-4.3201e-06
-4.80459e-07
2.28116e-06
6.6523e-06
1.08528e-05
1.57251e-05
2.08147e-05
2.61447e-05
3.16775e-05
3.7261e-05
4.28804e-05
4.84403e-05
5.38963e-05
5.91971e-05
6.42973e-05
6.91695e-05
7.37814e-05
7.81193e-05
8.21651e-05
8.59152e-05
8.93643e-05
9.25207e-05
9.53812e-05
9.79661e-05
0.00010027
0.00010232
0.000104114
0.000105675
0.000107005
0.000108124
0.000109039
0.000109763
0.000110306
0.000110678
0.00011089
0.00011095
0.000110865
0.000110645
0.000110295
0.000109823
0.000109234
0.000108533
0.000107725
0.000106814
0.000105805
0.000104699
0.0001035
0.000102211
0.000100833
9.93688e-05
9.78198e-05
9.61869e-05
9.44723e-05
9.26759e-05
9.07997e-05
8.88432e-05
8.68087e-05
8.4695e-05
8.25047e-05
8.02367e-05
7.78937e-05
7.54744e-05
7.29819e-05
7.04153e-05
6.77783e-05
6.507e-05
6.22943e-05
5.94521e-05
5.65462e-05
5.35801e-05
5.05563e-05
4.74799e-05
4.43535e-05
4.11855e-05
3.79771e-05
3.47405e-05
3.14742e-05
2.82002e-05
2.49112e-05
2.164e-05
1.8374e-05
1.51576e-05
1.19848e-05
8.89526e-06
5.90395e-06
3.03834e-06
3.36066e-07
-2.17625e-06
-4.46017e-06
-6.47242e-06
-8.1821e-06
-9.53734e-06
-1.04881e-05
-1.10564e-05
-1.1088e-05
-1.07456e-05
-9.75201e-06
-8.44446e-06
-6.29345e-06
-4.41205e-06
-5.89057e-07
2.17205e-06
6.5335e-06
1.07353e-05
1.56052e-05
2.06949e-05
2.60287e-05
3.15652e-05
3.71556e-05
4.27822e-05
4.83503e-05
5.38148e-05
5.91239e-05
6.42326e-05
6.91133e-05
7.37336e-05
7.80792e-05
8.21322e-05
8.58888e-05
8.93437e-05
9.2505e-05
9.53701e-05
9.79587e-05
0.000100266
0.000102319
0.000104115
0.000105679
0.000107012
0.000108132
0.000109049
0.000109775
0.000110319
0.000110693
0.000110906
0.000110967
0.000110884
0.000110665
0.000110317
0.000109846
0.000109259
0.000108559
0.000107753
0.000106844
0.000105836
0.000104732
0.000103535
0.000102247
0.000100871
9.94085e-05
9.78613e-05
9.62304e-05
9.45178e-05
9.27234e-05
9.08491e-05
8.88947e-05
8.68621e-05
8.47504e-05
8.2562e-05
8.02958e-05
7.79545e-05
7.55369e-05
7.3046e-05
7.04809e-05
6.7845e-05
6.51379e-05
6.23631e-05
5.95215e-05
5.66161e-05
5.36502e-05
5.06264e-05
4.75495e-05
4.44225e-05
4.12536e-05
3.80439e-05
3.48055e-05
3.1537e-05
2.826e-05
2.49678e-05
2.16921e-05
1.84214e-05
1.5199e-05
1.20198e-05
8.92268e-06
5.92314e-06
3.04899e-06
3.37676e-07
-2.18404e-06
-4.4776e-06
-6.49988e-06
-8.21935e-06
-9.5842e-06
-1.05445e-05
-1.112e-05
-1.11608e-05
-1.08227e-05
-9.83809e-06
-8.53263e-06
-6.39095e-06
-4.51597e-06
-7.10432e-07
2.05077e-06
6.40271e-06
1.06066e-05
1.54748e-05
2.05656e-05
2.59042e-05
3.14455e-05
3.70442e-05
4.26794e-05
4.82569e-05
5.37312e-05
5.905e-05
6.41685e-05
6.90588e-05
7.36884e-05
7.80427e-05
8.21038e-05
8.58676e-05
8.93289e-05
9.24956e-05
9.53657e-05
9.79582e-05
0.000100269
0.000102326
0.000104124
0.00010569
0.000107026
0.000108148
0.000109067
0.000109794
0.00011034
0.000110716
0.00011093
0.000110992
0.00011091
0.000110693
0.000110346
0.000109876
0.00010929
0.000108592
0.000107787
0.000106879
0.000105873
0.00010477
0.000103575
0.000102289
0.000100915
9.94537e-05
9.79085e-05
9.62795e-05
9.45687e-05
9.27763e-05
9.0904e-05
8.89515e-05
8.69208e-05
8.4811e-05
8.26244e-05
8.036e-05
7.80204e-05
7.56043e-05
7.31148e-05
7.05509e-05
6.79161e-05
6.52099e-05
6.24357e-05
5.95946e-05
5.66893e-05
5.37233e-05
5.0699e-05
4.76214e-05
4.44933e-05
4.13229e-05
3.81115e-05
3.48707e-05
3.15997e-05
2.8319e-05
2.5023e-05
2.17421e-05
1.84662e-05
1.52369e-05
1.20505e-05
8.94487e-06
5.93635e-06
3.05299e-06
3.31802e-07
-2.20013e-06
-4.50414e-06
-6.53725e-06
-8.26724e-06
-9.64238e-06
-1.06129e-05
-1.1196e-05
-1.12466e-05
-1.09127e-05
-9.93736e-06
-8.63382e-06
-6.50153e-06
-4.63249e-06
-8.45291e-07
1.91679e-06
6.25941e-06
1.0466e-05
1.53334e-05
2.04262e-05
2.57709e-05
3.13184e-05
3.69267e-05
4.25718e-05
4.81603e-05
5.3646e-05
5.89758e-05
6.41055e-05
6.90064e-05
7.36466e-05
7.80106e-05
8.20806e-05
8.58523e-05
8.93206e-05
9.24933e-05
9.53686e-05
9.79654e-05
0.00010028
0.00010234
0.000104142
0.00010571
0.000107048
0.000108172
0.000109092
0.000109821
0.000110369
0.000110745
0.000110961
0.000111024
0.000110944
0.000110727
0.000110381
0.000109913
0.000109328
0.000108631
0.000107828
0.000106921
0.000105916
0.000104815
0.000103622
0.000102337
0.000100964
9.9505e-05
9.79615e-05
9.63344e-05
9.46255e-05
9.2835e-05
9.09646e-05
8.9014e-05
8.69851e-05
8.48772e-05
8.26923e-05
8.04296e-05
7.80914e-05
7.56768e-05
7.31884e-05
7.06257e-05
6.79917e-05
6.52861e-05
6.25123e-05
5.96713e-05
5.67658e-05
5.37993e-05
5.07742e-05
4.76954e-05
4.45658e-05
4.13935e-05
3.81798e-05
3.49361e-05
3.16619e-05
2.8377e-05
2.50766e-05
2.17898e-05
1.85079e-05
1.52711e-05
1.20764e-05
8.96135e-06
5.94326e-06
3.04986e-06
3.17927e-07
-2.22507e-06
-4.54038e-06
-6.58515e-06
-8.32642e-06
-9.71259e-06
-1.0694e-05
-1.1285e-05
-1.13458e-05
-1.10164e-05
-1.00506e-05
-8.74878e-06
-6.62589e-06
-4.76221e-06
-9.94364e-07
1.76954e-06
6.10305e-06
1.03134e-05
1.51807e-05
2.02766e-05
2.56287e-05
3.11836e-05
3.68031e-05
4.24598e-05
4.80608e-05
5.35592e-05
5.89017e-05
6.40439e-05
6.89568e-05
7.36087e-05
7.79834e-05
8.20633e-05
8.58436e-05
8.93197e-05
9.24988e-05
9.53799e-05
9.79812e-05
0.000100301
0.000102363
0.000104168
0.000105739
0.000107079
0.000108204
0.000109127
0.000109857
0.000110406
0.000110784
0.000111
0.000111065
0.000110985
0.000110769
0.000110424
0.000109957
0.000109373
0.000108677
0.000107875
0.00010697
0.000105966
0.000104867
0.000103674
0.000102391
0.00010102
9.95626e-05
9.80209e-05
9.63956e-05
9.46885e-05
9.28999e-05
9.10312e-05
8.90825e-05
8.70554e-05
8.49491e-05
8.27658e-05
8.05047e-05
7.81679e-05