/*--------------------------------*- C++ -*----------------------------------*\
| =========                 |                                                 |
| \\      /  F ield         | OpenFOAM: The Open Source CFD Toolbox           |
|  \\    /   O peration     | Version:  2306                                  |
|   \\  /    A nd           | Website:  www.openfoam.com                      |
|    \\/     M anipulation  |                                                 |
\*---------------------------------------------------------------------------*/
// * * * * * * * * * * * * * * * * * * * * * * * * * * * * * * * * * * * * * //
FoamFile
{
    version         2;
    format          ascii;
    class           volTensorField;
    location        "0";
    object          Q_S;
}

dimensions      [ 0 0 0 0 0 0 0 ];

internalField   nonuniform List<tensor> 
14751
(
(0.70707 0.707144 0 -0.707144 0.70707 0 0 0 1)
(0.707067 0.707146 -4.33961e-23 -0.707146 0.707067 -6.01003e-27 -5.2269e-27 5.22632e-27 1)
(0.707124 0.70709 -4.72929e-24 -0.70709 0.707124 -1.86294e-24 -1.31707e-24 1.31713e-24 1)
(0.707173 0.70704 3.6259e-22 -0.70704 0.707173 5.28709e-24 3.68573e-24 -3.68642e-24 1)
(0.707217 0.706997 -5.39367e-24 -0.706997 0.707217 -8.22186e-23 -5.81271e-23 5.81452e-23 1)
(0.707267 0.706947 3.46372e-24 -0.706947 0.707267 4.174e-23 2.95069e-23 -2.95203e-23 1)
(0.707305 0.706908 -1.68788e-21 -0.706908 0.707305 -7.57428e-25 7.84966e-26 -7.85407e-26 1)
(0.707347 0.706867 -2.10251e-21 -0.706867 0.707347 3.61566e-23 2.64692e-23 -2.64872e-23 1)
(0.707381 0.706833 2.46753e-21 -0.706833 0.707381 3.57661e-25 -9.60675e-25 9.6142e-25 1)
(0.707411 0.706803 -2.28139e-24 -0.706803 0.707411 7.07172e-26 5.12173e-26 -5.12613e-26 1)
(0.707437 0.706777 -3.29815e-21 -0.706777 0.707437 -3.99679e-23 -2.6322e-23 2.63466e-23 1)
(0.707459 0.706754 -7.59353e-28 -0.706754 0.707459 6.81833e-25 4.81889e-25 -4.82369e-25 1)
(0.707478 0.706736 -4.17647e-21 -0.706736 0.707478 -3.37346e-24 3.28114e-25 -3.28459e-25 1)
(0.707492 0.706721 2.18906e-22 -0.706721 0.707492 1.96681e-23 1.37529e-23 -1.37679e-23 1)
(0.707502 0.706711 1.52391e-23 -0.706711 0.707502 1.80252e-23 1.27281e-23 -1.27424e-23 1)
(0.707509 0.706705 -1.60181e-22 -0.706705 0.707509 -6.67733e-25 -3.6048e-25 3.6089e-25 1)
(0.707512 0.706702 0 -0.706702 0.707512 0 0 0 1)
(0.707511 0.706702 1.91838e-22 -0.706702 0.707511 5.15104e-25 2.30748e-25 -2.31013e-25 1)
(0.707508 0.706705 6.14356e-21 -0.706705 0.707508 1.53338e-23 6.62047e-24 -6.62799e-24 1)
(0.707502 0.706711 4.22421e-22 -0.706711 0.707502 4.13313e-26 -2.55341e-25 2.55626e-25 1)
(0.707494 0.706719 1.31713e-23 -0.706719 0.707494 -6.28554e-25 -4.5287e-25 4.53367e-25 1)
(0.707484 0.706729 -4.49678e-21 -0.706729 0.707484 -8.23574e-24 -2.9509e-24 2.95405e-24 1)
(0.707473 0.706741 4.58655e-22 -0.706741 0.707473 5.70375e-25 1.20303e-25 -1.20427e-25 1)
(0.70746 0.706754 2.41512e-22 -0.706754 0.70746 2.02515e-25 2.16466e-29 -2.16682e-29 1)
(0.707446 0.706767 -2.4275e-22 -0.706767 0.707446 -2.21662e-25 -1.89273e-26 1.89455e-26 1)
(0.707432 0.706782 2.51511e-22 -0.706782 0.707432 -1.7603e-26 -1.485e-25 1.48637e-25 1)
(0.707417 0.706797 -4.33031e-21 -0.706797 0.707417 2.50561e-24 3.99633e-24 -3.99984e-24 1)
(0.707401 0.706812 -3.88457e-21 -0.706812 0.707401 -3.44202e-24 -5.43512e-25 5.43966e-25 1)
(0.707386 0.706828 -4.72084e-21 -0.706828 0.707386 -3.06082e-24 -5.67065e-28 5.67513e-28 1)
(0.70737 0.706843 2.63009e-22 -0.706843 0.70737 -5.13438e-25 -4.7617e-25 4.76525e-25 1)
(0.707355 0.706859 -2.13723e-21 -0.706859 0.707355 -4.91929e-24 -2.61563e-24 2.61746e-24 1)
(0.707339 0.706874 1.36815e-22 -0.706874 0.707339 4.71648e-24 3.2825e-24 -3.28466e-24 1)
(0.707324 0.706889 -1.3405e-22 -0.706889 0.707324 1.76111e-25 1.71377e-25 -1.71483e-25 1)
(0.70731 0.706904 2.16096e-21 -0.706904 0.70731 5.30904e-24 3.05242e-24 -3.05417e-24 1)
(0.707295 0.706918 1.33822e-22 -0.706918 0.707295 -2.27229e-24 -1.64635e-24 1.64723e-24 1)
(0.707281 0.706932 -2.42369e-21 -0.706932 0.707281 -9.58066e-25 -1.14613e-26 1.14669e-26 1)
(0.707268 0.706946 2.21432e-21 -0.706946 0.707268 4.57385e-24 2.67746e-24 -2.67868e-24 1)
(0.707255 0.706959 1.13765e-22 -0.706959 0.707255 7.49588e-23 5.29667e-23 -5.29889e-23 1)
(0.707242 0.706972 6.59459e-23 -0.706972 0.707242 -3.93852e-24 -2.79804e-24 2.79911e-24 1)
(0.70723 0.706984 -1.31659e-22 -0.706984 0.70723 -2.65405e-26 5.61938e-27 -5.62133e-27 1)
(0.707218 0.706996 1.1746e-21 -0.706996 0.707218 2.68624e-25 -3.47541e-27 3.4765e-27 1)
(0.707206 0.707007 -6.48465e-23 -0.707007 0.707206 -1.31487e-26 1.25421e-28 -1.25457e-28 1)
(0.707196 0.707018 -1.02175e-21 -0.707018 0.707196 -1.80945e-25 1.91079e-27 -1.91127e-27 1)
(0.707185 0.707029 4.73096e-22 -0.707029 0.707185 -8.25148e-25 -6.34993e-25 6.35133e-25 1)
(0.707175 0.707039 -4.46715e-22 -0.707039 0.707175 -1.88196e-23 -1.32652e-23 1.32678e-23 1)
(0.707164 0.707049 -5.05665e-22 -0.707049 0.707164 1.75374e-24 1.27746e-24 -1.27766e-24 1)
(0.707154 0.70706 -2.30282e-22 -0.70706 0.707154 1.87123e-23 1.32438e-23 -1.32456e-23 1)
(0.707144 0.70707 -1.49148e-23 -0.70707 0.707144 -1.72058e-24 -1.21597e-24 1.2161e-24 1)
(0.707134 0.70708 -1.07246e-23 -0.70708 0.707134 -1.7904e-23 -1.26593e-23 1.26603e-23 1)
(0.707124 0.70709 1.05424e-23 -0.70709 0.707124 1.95803e-23 1.3845e-23 -1.38456e-23 1)
(0.707113 0.7071 5.58861e-23 -0.7071 0.707113 -8.01299e-25 -5.66008e-25 5.66019e-25 1)
(0.707103 0.70711 -2.18495e-22 -0.70711 0.707103 -2.44941e-26 -2.32997e-26 2.32994e-26 1)
(0.707093 0.707121 2.50081e-32 -0.707121 0.707093 1.56883e-27 1.10935e-27 -1.10931e-27 1)
(0.707082 0.707131 -2.98319e-31 -0.707131 0.707082 -5.72342e-27 -4.04721e-27 4.04693e-27 1)
(0.707072 0.707142 -1.7081e-25 -0.707142 0.707072 -1.19762e-25 -8.47026e-26 8.46942e-26 1)
(0.707061 0.707153 -2.41703e-23 -0.707153 0.707061 8.41015e-25 5.92373e-25 -5.92296e-25 1)
(0.70705 0.707164 3.33363e-23 -0.707164 0.70705 1.9522e-23 1.38091e-23 -1.38069e-23 1)
(0.707039 0.707175 5.42614e-23 -0.707175 0.707039 1.79038e-23 1.26684e-23 -1.26659e-23 1)
(0.707027 0.707186 -4.52567e-23 -0.707186 0.707027 -4.2008e-25 -3.03967e-25 3.03898e-25 1)
(0.707016 0.707198 6.93865e-22 -0.707198 0.707016 -4.26425e-25 -1.82971e-25 1.82924e-25 1)
(0.707004 0.707209 1.49622e-27 -0.707209 0.707004 4.73744e-24 3.35036e-24 -3.34939e-24 1)
(0.706992 0.707221 5.99241e-23 -0.707221 0.706992 1.49842e-22 1.05984e-22 -1.05949e-22 1)
(0.70698 0.707234 7.57643e-23 -0.707234 0.70698 -4.70483e-24 -3.31001e-24 3.30882e-24 1)
(0.706967 0.707246 -1.1863e-21 -0.707246 0.706967 4.19359e-25 -1.07162e-27 1.0712e-27 1)
(0.706954 0.707259 -7.21149e-23 -0.707259 0.706954 1.01464e-24 6.97968e-25 -6.97667e-25 1)
(0.706941 0.707272 1.23936e-23 -0.707272 0.706941 3.74741e-23 2.6508e-23 -2.64956e-23 1)
(0.706928 0.707285 -1.08261e-21 -0.707285 0.706928 -2.9332e-27 -3.43475e-25 3.43301e-25 1)
(0.706915 0.707298 1.02677e-21 -0.707298 0.706915 -1.00282e-24 -3.62904e-25 3.62707e-25 1)
(0.706902 0.707312 -1.01951e-21 -0.707312 0.706902 8.99051e-25 2.69391e-25 -2.69235e-25 1)
(0.706889 0.707325 1.13943e-22 -0.707325 0.706889 1.73487e-23 1.23146e-23 -1.2307e-23 1)
(0.706876 0.707338 -1.59411e-21 -0.707338 0.706876 -1.61869e-23 -1.20922e-23 1.20843e-23 1)
(0.706863 0.707351 -4.45162e-26 -0.707351 0.706863 6.11841e-25 4.32767e-25 -4.32469e-25 1)
(0.70685 0.707363 3.18861e-24 -0.707363 0.70685 1.8024e-23 1.27509e-23 -1.27417e-23 1)
(0.706838 0.707376 3.43249e-24 -0.707376 0.706838 1.81894e-23 1.28684e-23 -1.28586e-23 1)
(0.706825 0.707388 6.41426e-23 -0.707388 0.706825 -1.90539e-23 -1.34471e-23 1.34364e-23 1)
(0.706813 0.707401 9.48983e-22 -0.707401 0.706813 -4.35959e-25 1.75859e-25 -1.75713e-25 1)
(0.706801 0.707413 5.29628e-23 -0.707413 0.706801 -3.98875e-26 -8.68839e-29 8.68087e-29 1)
(0.706789 0.707424 7.36346e-22 -0.707424 0.706789 -5.76035e-25 -1.91577e-27 1.91405e-27 1)
(0.706779 0.707435 6.78004e-22 -0.707435 0.706779 -5.33017e-25 8.71209e-27 -8.70401e-27 1)
(0.706768 0.707446 4.20014e-25 -0.707446 0.706768 2.18001e-24 1.54248e-24 -1.54101e-24 1)
(0.706759 0.707454 -9.22518e-22 -0.707454 0.706759 3.62802e-23 2.51112e-23 -2.50865e-23 1)
(0.70675 0.707463 -2.16738e-28 -0.707463 0.70675 -1.83986e-25 -1.30163e-25 1.30032e-25 1)
(0.706743 0.70747 1.33377e-23 -0.70747 0.706743 9.72372e-25 6.96314e-25 -6.95598e-25 1)
(0.706737 0.707476 -1.33036e-23 -0.707476 0.706737 -1.94866e-24 -1.38713e-24 1.38568e-24 1)
(0.706732 0.707481 1.50086e-22 -0.707481 0.706732 8.37706e-25 6.89668e-25 -6.88938e-25 1)
(0.70673 0.707483 -1.4625e-24 -0.707483 0.70673 -2.38256e-28 -1.11886e-27 1.11767e-27 1)
(0.70673 0.707484 -1.66811e-22 -0.707484 0.70673 1.53157e-25 -2.77952e-29 2.77656e-29 1)
(0.706732 0.707482 3.0975e-22 -0.707482 0.706732 -3.07111e-25 -1.74385e-26 1.742e-26 1)
(0.706737 0.707476 -9.63307e-24 -0.707476 0.706737 9.86482e-24 6.97301e-24 -6.96574e-24 1)
(0.706746 0.707468 3.71304e-24 -0.707468 0.706746 -4.59642e-25 -3.22884e-25 3.22555e-25 1)
(0.70676 0.707454 5.93299e-22 -0.707454 0.70676 -5.37276e-25 -2.85834e-26 2.85554e-26 1)
(0.706777 0.707436 6.4238e-22 -0.707436 0.706777 1.81886e-23 1.3228e-23 -1.32156e-23 1)
(0.706797 0.707417 -6.70307e-22 -0.707417 0.706797 1.45804e-24 6.81285e-25 -6.80688e-25 1)
(0.706824 0.707389 -6.7886e-25 -0.707389 0.706824 1.88205e-23 1.33131e-23 -1.33025e-23 1)
(0.706851 0.707362 3.2972e-22 -0.707362 0.706851 -1.96906e-23 -1.37895e-23 1.37795e-23 1)
(0.706885 0.707329 -2.99132e-22 -0.707329 0.706885 -3.73806e-23 -2.65502e-23 2.65335e-23 1)
(0.706922 0.707291 2.50084e-22 -0.707291 0.706922 -2.20125e-25 -8.3912e-26 8.38682e-26 1)
(0.70695 0.707263 0 -0.707263 0.70695 0 0 0 1)
(0.706962 0.707252 1.84872e-24 -0.707252 0.706962 -5.41103e-28 2.06087e-30 -2.06002e-30 1)
(0.706865 0.707348 8.56701e-25 -0.707348 0.706865 -4.82077e-24 -3.40941e-24 3.40708e-24 1)
(0.706926 0.707287 9.61849e-23 -0.707287 0.706926 -8.96292e-21 -6.33932e-21 6.33608e-21 1)
(0.707102 0.707111 -1.09951e-21 -0.707111 0.707102 -2.0156e-22 -1.42648e-22 1.42646e-22 1)
(0.707311 0.706903 -8.35933e-22 -0.706903 0.707311 1.80314e-20 1.27468e-20 -1.27541e-20 1)
(0.707469 0.706744 -4.97406e-21 -0.706744 0.707469 1.58962e-22 1.15848e-22 -1.15967e-22 1)
(0.707666 0.706547 -2.43751e-23 -0.706547 0.707666 -2.79329e-22 -1.97331e-22 1.97644e-22 1)
(0.707821 0.706392 3.94106e-21 -0.706392 0.707821 -3.49194e-20 -2.46726e-20 2.47225e-20 1)
(0.707983 0.706229 4.64797e-21 -0.706229 0.707983 -3.49717e-20 -2.47066e-20 2.47679e-20 1)
(0.708123 0.706089 -5.53494e-21 -0.706089 0.708123 3.49965e-20 2.47225e-20 -2.47937e-20 1)
(0.708247 0.705965 1.39468e-20 -0.705965 0.708247 -6.01181e-22 -4.5803e-22 4.5951e-22 1)
(0.708359 0.705852 2.33492e-20 -0.705852 0.708359 -3.46964e-20 -2.45527e-20 2.46399e-20 1)
(0.708458 0.705753 7.5918e-25 -0.705753 0.708458 -8.80883e-23 -6.21708e-23 6.2409e-23 1)
(0.708544 0.705667 2.90748e-20 -0.705667 0.708544 -3.51682e-20 -2.49065e-20 2.5008e-20 1)
(0.708614 0.705597 5.87437e-24 -0.705597 0.708614 1.84339e-21 1.30067e-21 -1.30623e-21 1)
(0.708669 0.705541 2.31707e-20 -0.705541 0.708669 -9.79067e-25 -7.87172e-23 7.90662e-23 1)
(0.708709 0.705501 1.58208e-21 -0.705501 0.708709 -9.57172e-22 -6.80767e-22 6.83863e-22 1)
(0.708736 0.705474 -8.48615e-22 -0.705474 0.708736 3.56819e-23 2.817e-23 -2.83002e-23 1)
(0.708749 0.705461 3.07904e-20 -0.705461 0.708749 1.79193e-21 1.15417e-21 -1.15955e-21 1)
(0.70875 0.70546 -1.50794e-20 -0.70546 0.70875 3.40886e-20 2.41022e-20 -2.42146e-20 1)
(0.70874 0.70547 1.32002e-22 -0.70547 0.70874 1.19068e-21 8.39517e-22 -8.43409e-22 1)
(0.708721 0.705489 -3.7293e-20 -0.705489 0.708721 -7.88726e-22 -4.24433e-22 4.26378e-22 1)
(0.708693 0.705517 1.23405e-20 -0.705517 0.708693 -2.15038e-20 -1.52143e-20 1.52828e-20 1)
(0.708659 0.705551 -2.21163e-21 -0.705551 0.708659 2.53701e-21 1.79756e-21 -1.80548e-21 1)
(0.708617 0.705593 3.97183e-20 -0.705593 0.708617 1.07058e-21 6.22771e-22 -6.2544e-22 1)
(0.708571 0.70564 -4.23481e-20 -0.70564 0.708571 -1.18337e-21 -6.97593e-22 7.00491e-22 1)
(0.70852 0.705691 7.66018e-23 -0.705691 0.70852 4.82806e-22 3.40471e-22 -3.41836e-22 1)
(0.708465 0.705746 1.0553e-20 -0.705746 0.708465 -1.959e-20 -1.38575e-20 1.39109e-20 1)
(0.708408 0.705803 9.62055e-21 -0.705803 0.708408 -1.71906e-20 -1.21611e-20 1.2206e-20 1)
(0.708347 0.705864 1.09088e-20 -0.705864 0.708347 -1.97068e-20 -1.39407e-20 1.39897e-20 1)
(0.708287 0.705925 2.17514e-20 -0.705925 0.708287 1.44045e-21 9.59087e-22 -9.62296e-22 1)
(0.708225 0.705987 6.48037e-21 -0.705987 0.708225 -9.20249e-21 -6.5132e-21 6.53385e-21 1)
(0.708163 0.706049 -1.44857e-21 -0.706049 0.708163 7.54485e-22 5.36171e-22 -5.37776e-22 1)
(0.708102 0.706111 -8.11692e-22 -0.706111 0.708102 -2.53352e-22 -1.77058e-22 1.77557e-22 1)
(0.708041 0.706172 -2.86806e-20 -0.706172 0.708041 9.28644e-21 6.61896e-21 -6.63648e-21 1)
(0.70798 0.706232 7.1435e-23 -0.706232 0.70798 -9.26744e-23 -6.55927e-23 6.5755e-23 1)
(0.707921 0.706291 -6.45897e-21 -0.706291 0.707921 -1.02122e-20 -7.20066e-21 7.21728e-21 1)
(0.707863 0.70635 -6.71964e-21 -0.70635 0.707863 1.00559e-20 7.11471e-21 -7.12995e-21 1)
(0.707806 0.706406 4.38182e-22 -0.706406 0.707806 -2.54855e-22 -1.80743e-22 1.81102e-22 1)
(0.707751 0.706462 3.12962e-23 -0.706462 0.707751 2.45299e-22 1.73248e-22 -1.73564e-22 1)
(0.707697 0.706516 -6.18943e-23 -0.706516 0.707697 -3.7733e-22 -2.66504e-22 2.66949e-22 1)
(0.707644 0.706569 -2.52939e-21 -0.706569 0.707644 5.35421e-21 3.78633e-21 -3.79209e-21 1)
(0.707592 0.706621 6.11227e-21 -0.706621 0.707592 -5.69069e-22 -4.09187e-22 4.09749e-22 1)
(0.707542 0.706671 2.75283e-21 -0.706671 0.707542 -4.77222e-21 -3.37527e-21 3.37944e-21 1)
(0.707493 0.70672 4.39942e-21 -0.70672 0.707493 2.39261e-21 1.68678e-21 -1.68862e-21 1)
(0.707445 0.706768 7.58476e-21 -0.706768 0.707445 -2.24631e-21 -1.59393e-21 1.59546e-21 1)
(0.707397 0.706817 -1.73768e-21 -0.706817 0.707397 -2.49752e-21 -1.76403e-21 1.76547e-21 1)
(0.707349 0.706865 5.27908e-22 -0.706865 0.707349 -1.216e-21 -8.59872e-22 8.60461e-22 1)
(0.707301 0.706912 3.76233e-23 -0.706912 0.707301 -2.90245e-23 -2.05371e-23 2.05484e-23 1)
(0.707253 0.70696 4.1147e-23 -0.70696 0.707253 5.86712e-23 4.14616e-23 -4.14788e-23 1)
(0.707205 0.707008 9.12975e-23 -0.707008 0.707205 -5.26633e-23 -3.72605e-23 3.72709e-23 1)
(0.707157 0.707056 -1.02257e-22 -0.707056 0.707157 2.80625e-22 1.98437e-22 -1.98465e-22 1)
(0.707109 0.707105 5.2641e-22 -0.707105 0.707109 -1.25356e-21 -8.86441e-22 8.86446e-22 1)
(0.707059 0.707155 1.31879e-26 -0.707155 0.707059 3.22722e-23 2.28214e-23 -2.28184e-23 1)
(0.707008 0.707206 -2.44391e-21 -0.707206 0.707008 4.93837e-25 -1.94137e-26 1.94083e-26 1)
(0.706956 0.707257 -1.60171e-22 -0.707257 0.706956 -3.55631e-24 -2.55818e-24 2.55709e-24 1)
(0.706904 0.707309 -1.29604e-23 -0.707309 0.706904 -1.37704e-22 -9.74047e-23 9.73489e-23 1)
(0.706851 0.707362 -3.58071e-22 -0.707362 0.706851 8.867e-23 6.25402e-23 -6.2495e-23 1)
(0.706797 0.707416 5.3769e-22 -0.707416 0.706797 2.10958e-22 1.49574e-22 -1.49443e-22 1)
(0.706743 0.707471 -3.11118e-22 -0.707471 0.706743 -1.80397e-22 -1.27861e-22 1.27729e-22 1)
(0.706687 0.707526 -1.56421e-21 -0.707526 0.706687 5.03835e-21 3.56338e-21 -3.55915e-21 1)
(0.706631 0.707582 -5.2728e-22 -0.707582 0.706631 -1.13913e-22 -8.11359e-23 8.10268e-23 1)
(0.706573 0.70764 7.87743e-21 -0.70764 0.706573 -4.79885e-22 -3.30571e-22 3.30072e-22 1)
(0.706514 0.7077 7.33496e-21 -0.7077 0.706514 3.83251e-22 2.80615e-22 -2.80145e-22 1)
(0.706454 0.707759 3.59318e-21 -0.707759 0.706454 -1.00722e-20 -7.12359e-21 7.11045e-21 1)
(0.706393 0.70782 6.61278e-21 -0.70782 0.706393 -3.99237e-22 -2.72297e-22 2.71748e-22 1)
(0.706332 0.707881 -1.27106e-20 -0.707881 0.706332 -2.38671e-22 -1.90492e-22 1.90075e-22 1)
(0.706271 0.707942 2.23924e-21 -0.707942 0.706271 -1.04219e-20 -7.37401e-21 7.3566e-21 1)
(0.706209 0.708003 -2.49403e-21 -0.708003 0.706209 1.0561e-20 7.47229e-21 -7.45336e-21 1)
(0.706148 0.708064 3.00029e-21 -0.708064 0.706148 -1.12296e-20 -7.94492e-21 7.92342e-21 1)
(0.706088 0.708124 -6.61646e-22 -0.708124 0.706088 9.58809e-22 6.77467e-22 -6.75519e-22 1)
(0.706028 0.708184 4.74158e-21 -0.708184 0.706028 -1.98324e-20 -1.40337e-20 1.3991e-20 1)
(0.70597 0.708242 -9.58651e-21 -0.708242 0.70597 2.55162e-22 1.56593e-22 -1.5609e-22 1)
(0.705912 0.708299 4.66372e-22 -0.708299 0.705912 -6.08191e-23 -4.18442e-23 4.17032e-23 1)
(0.705856 0.708355 -1.55425e-20 -0.708355 0.705856 1.16987e-23 -3.47875e-23 3.46647e-23 1)
(0.705801 0.70841 4.5986e-22 -0.70841 0.705801 1.28518e-21 9.11763e-22 -9.08406e-22 1)
(0.705748 0.708463 -2.9903e-21 -0.708463 0.705748 1.85044e-20 1.31007e-20 -1.30505e-20 1)
(0.705697 0.708513 6.49754e-22 -0.708513 0.705697 1.05885e-21 7.52241e-22 -7.49251e-22 1)
(0.70565 0.708561 6.65918e-21 -0.708561 0.70565 1.84238e-20 1.30759e-20 -1.30222e-20 1)
(0.705606 0.708604 -1.66897e-21 -0.708604 0.705606 1.92761e-20 1.36536e-20 -1.35958e-20 1)
(0.705564 0.708646 -3.7638e-22 -0.708646 0.705564 -2.10397e-22 -1.50385e-22 1.49731e-22 1)
(0.70553 0.70868 -3.03105e-21 -0.70868 0.70553 -3.85355e-20 -2.73199e-20 2.71985e-20 1)
(0.705499 0.708711 2.91631e-22 -0.708711 0.705499 1.18433e-22 8.49745e-23 -8.45894e-23 1)
(0.705475 0.708735 -2.92055e-21 -0.708735 0.705475 1.07498e-21 7.51304e-22 -7.47849e-22 1)
(0.705457 0.708752 -1.85176e-21 -0.708752 0.705457 -1.01242e-21 -7.24332e-22 7.20964e-22 1)
(0.705446 0.708763 -2.51026e-22 -0.708763 0.705446 3.78352e-20 2.68152e-20 -2.66898e-20 1)
(0.705446 0.708764 9.03994e-24 -0.708764 0.705446 4.85277e-22 3.4398e-22 -3.4237e-22 1)
(0.705455 0.708755 5.24545e-22 -0.708755 0.705455 3.70584e-20 2.62673e-20 -2.61449e-20 1)
(0.705475 0.708735 -8.63002e-22 -0.708735 0.705475 -3.78889e-20 -2.68563e-20 2.67328e-20 1)
(0.70551 0.7087 2.26274e-21 -0.7087 0.70551 6.93422e-22 4.9944e-22 -4.97193e-22 1)
(0.705557 0.708654 -1.92527e-23 -0.708654 0.705557 -1.81901e-22 -1.28971e-22 1.28408e-22 1)
(0.705625 0.708585 1.53885e-21 -0.708585 0.705625 -3.69294e-20 -2.61625e-20 2.60533e-20 1)
(0.705705 0.708506 -1.62432e-21 -0.708506 0.705705 -3.707e-20 -2.62694e-20 2.61655e-20 1)
(0.7058 0.708411 1.70915e-21 -0.708411 0.7058 3.66902e-20 2.59967e-20 -2.59009e-20 1)
(0.705914 0.708298 3.36274e-21 -0.708298 0.705914 4.59619e-23 4.15281e-23 -4.13883e-23 1)
(0.706036 0.708176 -4.01224e-21 -0.708176 0.706036 -1.87529e-20 -1.329e-20 1.32498e-20 1)
(0.706167 0.708045 7.29027e-22 -0.708045 0.706167 1.90709e-20 1.35046e-20 -1.34688e-20 1)
(0.706328 0.707885 -6.38079e-22 -0.707885 0.706328 -1.83887e-20 -1.30182e-20 1.29895e-20 1)
(0.706422 0.707791 4.12373e-24 -0.707791 0.706422 -2.65629e-23 -1.87944e-23 1.87581e-23 1)
(0.70653 0.707683 -4.67553e-24 -0.707683 0.70653 -2.82007e-22 -1.99577e-22 1.99252e-22 1)
(0.706538 0.707675 1.53945e-23 -0.707675 0.706538 1.25447e-20 8.87756e-21 -8.86331e-21 1)
(0.706697 0.707516 1.56339e-22 -0.707516 0.706697 9.88977e-21 6.99729e-21 -6.98919e-21 1)
(0.706991 0.707223 1.08133e-21 -0.707223 0.706991 -4.98534e-20 -3.52572e-20 3.52456e-20 1)
(0.707355 0.706858 -8.48542e-21 -0.706858 0.707355 -2.03013e-20 -1.43456e-20 1.43557e-20 1)
(0.707641 0.706573 5.0571e-21 -0.706573 0.707641 -9.92914e-20 -7.0162e-20 7.02681e-20 1)
(0.707979 0.706234 -1.36717e-20 -0.706234 0.707979 4.02438e-22 3.08358e-22 -3.0912e-22 1)
(0.708261 0.705951 5.54703e-21 -0.705951 0.708261 3.9991e-20 2.82188e-20 -2.83111e-20 1)
(0.708549 0.705662 6.94781e-21 -0.705662 0.708549 3.84299e-20 2.70983e-20 -2.72092e-20 1)
(0.708806 0.705404 -8.1301e-21 -0.705404 0.708806 -3.83402e-20 -2.70175e-20 2.71478e-20 1)
(0.709038 0.70517 -1.38405e-20 -0.70517 0.709038 9.91416e-20 6.99654e-20 -7.03492e-20 1)
(0.709253 0.704954 -4.85381e-21 -0.704954 0.709253 1.35978e-19 9.5879e-20 -9.64636e-20 1)
(0.709444 0.704762 -4.25919e-24 -0.704762 0.709444 2.70285e-22 1.90507e-22 -1.91772e-22 1)
(0.709613 0.704591 -5.5515e-21 -0.704591 0.709613 1.36033e-19 9.58754e-20 -9.65587e-20 1)
(0.709756 0.704448 -6.54685e-22 -0.704448 0.709756 -3.78309e-22 -2.63024e-22 2.65005e-22 1)
(0.709871 0.704331 -2.32275e-20 -0.704331 0.709871 9.39755e-20 6.63185e-20 -6.68402e-20 1)
(0.709961 0.704241 6.45873e-22 -0.704241 0.709961 4.26286e-21 2.99839e-21 -3.02275e-21 1)
(0.710025 0.704176 5.7169e-20 -0.704176 0.710025 -8.66082e-22 -9.43723e-22 9.51562e-22 1)
(0.710066 0.704135 3.22084e-20 -0.704135 0.710066 9.86938e-20 6.93032e-20 -6.98869e-20 1)
(0.710083 0.704118 -2.33855e-20 -0.704118 0.710083 -4.32326e-20 -3.03017e-20 3.05584e-20 1)
(0.71008 0.704121 7.26842e-22 -0.704121 0.71008 -1.00897e-21 -7.14755e-22 7.20805e-22 1)
(0.71006 0.704141 3.25047e-20 -0.704141 0.71006 -1.0095e-19 -7.12745e-20 7.18736e-20 1)
(0.710023 0.704179 1.84119e-20 -0.704179 0.710023 3.23281e-20 2.26576e-20 -2.28456e-20 1)
(0.709972 0.70423 -4.15639e-21 -0.70423 0.709972 -4.26414e-21 -2.97917e-21 3.00346e-21 1)
(0.709907 0.704296 -3.46783e-20 -0.704296 0.709907 9.4302e-20 6.66103e-20 -6.7141e-20 1)
(0.709832 0.704371 -4.46632e-20 -0.704371 0.709832 -1.01912e-19 -7.15413e-20 7.2096e-20 1)
(0.709748 0.704455 -3.54196e-21 -0.704455 0.709748 2.94204e-21 2.0912e-21 -2.10691e-21 1)
(0.709657 0.704547 5.6935e-20 -0.704547 0.709657 2.31963e-20 1.60534e-20 -1.61699e-20 1)
(0.70956 0.704645 1.71879e-20 -0.704645 0.70956 1.95963e-20 1.37244e-20 -1.38201e-20 1)
(0.709456 0.704749 -2.8033e-20 -0.704749 0.709456 2.26118e-20 1.60669e-20 -1.61742e-20 1)
(0.709352 0.704855 -2.17535e-20 -0.704855 0.709352 4.54537e-20 3.21355e-20 -3.23406e-20 1)
(0.709244 0.704963 -3.7346e-20 -0.704963 0.709244 1.10763e-20 7.9674e-21 -8.01579e-21 1)
(0.709136 0.705072 -4.82179e-20 -0.705072 0.709136 -3.5032e-21 -2.27517e-21 2.28828e-21 1)
(0.709027 0.705181 -1.10123e-21 -0.705181 0.709027 -2.87675e-21 -2.02442e-21 2.03546e-21 1)
(0.70892 0.705289 1.32967e-20 -0.705289 0.70892 -5.73768e-20 -4.05152e-20 4.07238e-20 1)
(0.708813 0.705397 -4.95183e-22 -0.705397 0.708813 1.32547e-21 9.36664e-22 -9.412e-22 1)
(0.708708 0.705502 2.02542e-20 -0.705502 0.708708 -1.36275e-20 -9.67873e-21 9.7227e-21 1)
(0.708604 0.705607 -3.33939e-20 -0.705607 0.708604 -1.25393e-20 -8.7484e-21 8.78556e-21 1)
(0.708502 0.705708 2.46911e-20 -0.705708 0.708502 1.92717e-21 1.29148e-21 -1.29659e-21 1)
(0.708402 0.705809 2.43527e-20 -0.705809 0.708402 4.42012e-23 -3.15498e-23 3.16657e-23 1)
(0.708306 0.705906 4.77452e-22 -0.705906 0.708306 -1.62776e-22 -1.16043e-22 1.16437e-22 1)
(0.70821 0.706002 -3.88232e-21 -0.706002 0.70821 -4.69624e-21 -3.30703e-21 3.31738e-21 1)
(0.708117 0.706095 -5.87188e-21 -0.706095 0.708117 1.27688e-20 9.02777e-21 -9.05362e-21 1)
(0.708027 0.706186 3.76318e-21 -0.706186 0.708027 5.28788e-21 3.72735e-21 -3.73706e-21 1)
(0.707936 0.706276 -6.48312e-21 -0.706276 0.707936 9.475e-21 6.70265e-21 -6.7184e-21 1)
(0.707848 0.706365 -3.8245e-21 -0.706365 0.707848 1.50825e-20 1.06594e-20 -1.06817e-20 1)
(0.70776 0.706453 4.81429e-21 -0.706453 0.70776 -4.10053e-21 -2.90307e-21 2.90844e-21 1)
(0.707672 0.706541 6.48838e-21 -0.706541 0.707672 1.36185e-21 9.54934e-22 -9.56461e-22 1)
(0.707584 0.706629 3.1956e-21 -0.706629 0.707584 5.15917e-23 3.34361e-23 -3.34813e-23 1)
(0.707496 0.706718 1.26253e-21 -0.706718 0.707496 -8.14658e-23 -5.85451e-23 5.86096e-23 1)
(0.707407 0.706806 -2.71859e-22 -0.706806 0.707407 3.8904e-22 2.75137e-22 -2.75371e-22 1)
(0.707318 0.706896 -1.5893e-21 -0.706896 0.707318 -2.05916e-22 -1.44901e-22 1.44988e-22 1)
(0.707227 0.706987 3.57503e-21 -0.706987 0.707227 1.19715e-21 8.45529e-22 -8.45816e-22 1)
(0.707134 0.707079 -5.9374e-26 -0.707079 0.707134 -1.64138e-22 -1.16059e-22 1.16068e-22 1)
(0.707039 0.707175 2.41186e-21 -0.707175 0.707039 -5.97448e-21 -4.22466e-21 4.22385e-21 1)
(0.706942 0.707271 -1.77817e-22 -0.707271 0.706942 -2.30706e-22 -1.63231e-22 1.63155e-22 1)
(0.706845 0.707369 -9.33558e-21 -0.707369 0.706845 -7.73914e-25 -5.45624e-24 5.4522e-24 1)
(0.706746 0.707467 -3.82992e-22 -0.707467 0.706746 -6.92326e-22 -4.90075e-22 4.89575e-22 1)
(0.706645 0.707568 -6.20779e-22 -0.707568 0.706645 1.44781e-21 1.02385e-21 -1.02251e-21 1)
(0.706542 0.707671 6.98626e-22 -0.707671 0.706542 -8.55972e-22 -6.04959e-22 6.03994e-22 1)
(0.706437 0.707776 -2.86782e-21 -0.707776 0.706437 -4.42636e-21 -3.13671e-21 3.13078e-21 1)
(0.706331 0.707881 -6.47757e-23 -0.707881 0.706331 -9.02981e-22 -6.39304e-22 6.37904e-22 1)
(0.706222 0.707991 -6.56784e-21 -0.707991 0.706222 2.65161e-20 1.87615e-20 -1.87147e-20 1)
(0.706111 0.708101 7.79893e-21 -0.708101 0.706111 2.36708e-20 1.67768e-20 -1.67297e-20 1)
(0.705999 0.708212 2.09139e-20 -0.708212 0.705999 1.16247e-20 8.27896e-21 -8.25308e-21 1)
(0.705885 0.708326 -2.05628e-20 -0.708326 0.705885 2.30711e-20 1.62918e-20 -1.62356e-20 1)
(0.705772 0.708439 1.23925e-20 -0.708439 0.705772 -4.79972e-20 -3.39701e-20 3.38422e-20 1)
(0.705657 0.708553 3.61525e-21 -0.708553 0.705657 9.29677e-21 6.5977e-21 -6.57074e-21 1)
(0.705544 0.708666 -2.77145e-20 -0.708666 0.705544 -1.00871e-20 -7.23476e-21 7.20288e-21 1)
(0.70543 0.708779 -1.77965e-20 -0.708779 0.70543 1.33258e-20 9.38556e-21 -9.34122e-21 1)
(0.705319 0.70889 -4.70987e-22 -0.70889 0.705319 -2.75318e-21 -1.95338e-21 1.94354e-21 1)
(0.705208 0.709001 -1.25549e-20 -0.709001 0.705208 2.29098e-20 1.61955e-20 -1.61089e-20 1)
(0.7051 0.709108 8.56918e-21 -0.709108 0.7051 -5.35388e-20 -3.79305e-20 3.77161e-20 1)
(0.704994 0.709213 -9.68392e-22 -0.709213 0.704994 2.57136e-21 1.81956e-21 -1.80874e-21 1)
(0.704891 0.709316 -2.21162e-21 -0.709316 0.704891 -1.0341e-19 -7.33601e-20 7.29025e-20 1)
(0.70479 0.709416 2.64476e-20 -0.709416 0.70479 3.31924e-21 2.47691e-21 -2.46075e-21 1)
(0.704694 0.709512 -3.22382e-21 -0.709512 0.704694 -2.31016e-20 -1.64064e-20 1.62949e-20 1)
(0.704601 0.709604 -1.60846e-22 -0.709604 0.704601 6.24825e-21 4.43298e-21 -4.40173e-21 1)
(0.704515 0.709689 -1.12885e-20 -0.709689 0.704515 7.42198e-20 5.26147e-20 -5.22311e-20 1)
(0.704436 0.709768 -2.74835e-21 -0.709768 0.704436 -2.05392e-20 -1.45927e-20 1.44831e-20 1)
(0.704361 0.709842 -7.49732e-23 -0.709842 0.704361 -5.77593e-21 -4.10041e-21 4.06874e-21 1)
(0.704298 0.709905 1.83947e-20 -0.709905 0.704298 -5.97667e-20 -4.23255e-20 4.19912e-20 1)
(0.704242 0.70996 6.56819e-23 -0.70996 0.704242 5.61423e-21 3.98625e-21 -3.95415e-21 1)
(0.704198 0.710004 1.92477e-21 -0.710004 0.704198 -9.99525e-20 -7.09555e-20 7.03753e-20 1)
(0.704166 0.710035 1.04496e-21 -0.710035 0.704166 -9.96788e-20 -7.07693e-20 7.01843e-20 1)
(0.704147 0.710054 -8.47878e-22 -0.710054 0.704147 -4.01955e-20 -2.8546e-20 2.83085e-20 1)
(0.704146 0.710055 -3.98743e-24 -0.710055 0.704146 -1.3911e-21 -9.87783e-22 9.79564e-22 1)
(0.704162 0.710039 3.15998e-22 -0.710039 0.704162 -3.89196e-20 -2.76326e-20 2.74039e-20 1)
(0.704199 0.710003 -8.16907e-22 -0.710003 0.704199 4.03869e-20 2.86701e-20 -2.84357e-20 1)
(0.70426 0.709942 -2.7065e-21 -0.709942 0.70426 -1.00459e-19 -7.13357e-20 7.07648e-20 1)
(0.704343 0.70986 -1.01193e-23 -0.70986 0.704343 6.72754e-22 4.77505e-22 -4.73794e-22 1)
(0.70446 0.709743 -1.15693e-20 -0.709743 0.70446 -5.88357e-20 -4.18194e-20 4.15082e-20 1)
(0.704597 0.709607 -2.02382e-21 -0.709607 0.704597 3.974e-20 2.81896e-20 -2.79906e-20 1)
(0.704761 0.709445 2.08903e-21 -0.709445 0.704761 -4.02564e-20 -2.85499e-20 2.83614e-20 1)
(0.704951 0.709256 -1.06687e-20 -0.709256 0.704951 -9.90075e-20 -7.02678e-20 6.98413e-20 1)
(0.70516 0.709048 2.59916e-21 -0.709048 0.70516 1.19092e-19 8.44523e-20 -8.39893e-20 1)
(0.705379 0.70883 8.71199e-22 -0.70883 0.705379 -2.08829e-20 -1.47994e-20 1.47274e-20 1)
(0.705644 0.708567 -7.51531e-22 -0.708567 0.705644 2.1189e-20 1.50117e-20 -1.49497e-20 1)
(0.705813 0.708398 -2.48935e-25 -0.708398 0.705813 -1.49492e-22 -1.05901e-22 1.05514e-22 1)
(0.706047 0.708165 -5.38387e-24 -0.708165 0.706047 3.17396e-22 2.24758e-22 -2.24086e-22 1)
(0.706258 0.707955 -3.63534e-23 -0.707955 0.706258 -1.39668e-20 -9.88795e-21 9.86424e-21 1)
(0.706569 0.707644 7.7049e-22 -0.707644 0.706569 5.27303e-23 3.80941e-23 -3.80363e-23 1)
(0.706971 0.707243 -3.12423e-21 -0.707243 0.706971 5.55248e-20 3.92686e-20 -3.92535e-20 1)
(0.707501 0.706713 1.02536e-21 -0.706713 0.707501 -2.63004e-19 -1.85869e-19 1.86076e-19 1)
(0.707919 0.706294 6.65497e-21 -0.706294 0.707919 1.12834e-19 7.96828e-20 -7.98662e-20 1)
(0.7084 0.705812 -1.44271e-20 -0.705812 0.7084 -2.60405e-19 -1.8376e-19 1.84433e-19 1)
(0.708821 0.705388 -5.30922e-21 -0.705388 0.708821 6.51116e-22 4.77544e-22 -4.79868e-22 1)
(0.709236 0.704972 -6.85203e-21 -0.704972 0.709236 -3.77585e-23 2.56059e-24 -2.57608e-24 1)
(0.709614 0.70459 8.1217e-21 -0.70459 0.709614 -6.72689e-22 -5.14709e-22 5.18379e-22 1)
(0.709957 0.704245 -1.89953e-20 -0.704245 0.709957 -1.10484e-19 -7.76993e-20 7.83295e-20 1)
(0.710275 0.703924 -1.00403e-19 -0.703924 0.710275 -1.09231e-19 -7.62552e-20 7.69432e-20 1)
(0.71056 0.703637 4.33493e-24 -0.703637 0.71056 -1.99545e-22 -1.40437e-22 1.41819e-22 1)
(0.710812 0.703382 -4.06426e-20 -0.703382 0.710812 -1.08912e-19 -7.63066e-20 7.71127e-20 1)
(0.711026 0.703166 -1.51204e-21 -0.703166 0.711026 -2.06871e-22 -1.33651e-22 1.35145e-22 1)
(0.7112 0.70299 -3.03143e-20 -0.70299 0.7112 -1.0822e-19 -7.58304e-20 7.6716e-20 1)
(0.711335 0.702853 1.07761e-19 -0.702853 0.711335 5.61701e-21 3.04015e-21 -3.07684e-21 1)
(0.711432 0.702755 -5.7732e-20 -0.702755 0.711432 2.53975e-19 1.78979e-19 -1.81189e-19 1)
(0.711494 0.702692 -1.00612e-19 -0.702692 0.711494 1.40903e-19 9.98905e-20 -1.01142e-19 1)
(0.711522 0.702664 -1.10609e-19 -0.702664 0.711522 -1.01454e-20 -6.1567e-21 6.23431e-21 1)
(0.71152 0.702666 4.43611e-23 -0.702666 0.71152 9.47839e-21 6.65975e-21 -6.74367e-21 1)
(0.71149 0.702697 5.58288e-20 -0.702697 0.71149 1.07041e-19 7.47307e-20 -7.56658e-20 1)
(0.711436 0.702751 -1.77758e-20 -0.702751 0.711436 4.80822e-21 3.5321e-21 -3.57575e-21 1)
(0.711359 0.702828 -1.87831e-21 -0.702828 0.711359 -9.62479e-21 -6.74869e-21 6.8306e-21 1)
(0.711264 0.702925 -5.41566e-20 -0.702925 0.711264 -1.01474e-19 -7.08809e-20 7.17217e-20 1)
(0.711152 0.703038 1.36887e-19 -0.703038 0.711152 -1.40655e-19 -9.99872e-20 1.01141e-19 1)
(0.711028 0.703164 2.47442e-21 -0.703164 0.711028 -2.49316e-21 -1.7724e-21 1.79222e-21 1)
(0.710891 0.703302 -1.48792e-19 -0.703302 0.710891 1.16316e-19 8.29253e-20 -8.38201e-20 1)