/*--------------------------------*- C++ -*----------------------------------*\
| =========                 |                                                 |
| \\      /  F ield         | OpenFOAM: The Open Source CFD Toolbox           |
|  \\    /   O peration     | Version:  2306                                  |
|   \\  /    A nd           | Website:  www.openfoam.com                      |
|    \\/     M anipulation  |                                                 |
\*---------------------------------------------------------------------------*/
// * * * * * * * * * * * * * * * * * * * * * * * * * * * * * * * * * * * * * //
FoamFile
{
    version         2;
    format          ascii;
    class           volSymmTensorField;
    location        "0";
    object          Rdns;
}

dimensions      [ 0 2 -2 0 0 0 0 ];

internalField   nonuniform List<symmTensor> 
14751
(
(4.04568e-07 3.56609e-09 0 2.64979e-10 0 1.3527e-07)
(4.0348e-07 3.68016e-09 0 2.70242e-10 0 1.37708e-07)
(4.01884e-07 3.78613e-09 0 2.75947e-10 0 1.40011e-07)
(4.00104e-07 3.894e-09 0 2.83627e-10 0 1.42206e-07)
(3.98097e-07 3.98516e-09 0 2.9109e-10 0 1.44312e-07)
(3.95955e-07 4.07806e-09 0 2.97793e-10 0 1.46252e-07)
(3.93377e-07 4.15546e-09 0 3.04147e-10 0 1.47955e-07)
(3.9092e-07 4.22216e-09 0 3.11256e-10 0 1.49586e-07)
(3.88624e-07 4.28622e-09 0 3.20322e-10 0 1.51187e-07)
(3.86496e-07 4.34729e-09 0 3.28221e-10 0 1.52782e-07)
(3.8449e-07 4.40524e-09 0 3.36884e-10 0 1.5436e-07)
(3.82661e-07 4.4464e-09 0 3.45487e-10 0 1.55826e-07)
(3.81261e-07 4.49449e-09 0 3.55838e-10 0 1.572e-07)
(3.80008e-07 4.53316e-09 0 3.6602e-10 0 1.5837e-07)
(3.78904e-07 4.56812e-09 0 3.76364e-10 0 1.59551e-07)
(3.77723e-07 4.60228e-09 0 3.86159e-10 0 1.60681e-07)
(3.76585e-07 4.62051e-09 0 3.95685e-10 0 1.61697e-07)
(3.76032e-07 4.64369e-09 0 4.06908e-10 0 1.62807e-07)
(3.75976e-07 4.6747e-09 0 4.19987e-10 0 1.64101e-07)
(3.7615e-07 4.70201e-09 0 4.328e-10 0 1.65211e-07)
(3.76574e-07 4.72955e-09 0 4.45867e-10 0 1.66186e-07)
(3.77309e-07 4.75551e-09 0 4.59545e-10 0 1.67301e-07)
(3.7854e-07 4.78567e-09 0 4.74488e-10 0 1.6872e-07)
(3.80148e-07 4.81431e-09 0 4.89153e-10 0 1.703e-07)
(3.82128e-07 4.84835e-09 0 5.05095e-10 0 1.72046e-07)
(3.8406e-07 4.89167e-09 0 5.20658e-10 0 1.74031e-07)
(3.8606e-07 4.94497e-09 0 5.3803e-10 0 1.76333e-07)
(3.88031e-07 4.99564e-09 0 5.59285e-10 0 1.78977e-07)
(3.90398e-07 5.04342e-09 0 5.83135e-10 0 1.81753e-07)
(3.93437e-07 5.0909e-09 0 6.02833e-10 0 1.84409e-07)
(3.97201e-07 5.16929e-09 0 6.24251e-10 0 1.8753e-07)
(4.00721e-07 5.24766e-09 0 6.48676e-10 0 1.90851e-07)
(4.04523e-07 5.3215e-09 0 6.75476e-10 0 1.94527e-07)
(4.08424e-07 5.3937e-09 0 7.00881e-10 0 1.97783e-07)
(4.12466e-07 5.44661e-09 0 7.21336e-10 0 2.00325e-07)
(4.16975e-07 5.52612e-09 0 7.47267e-10 0 2.03233e-07)
(4.21078e-07 5.61622e-09 0 7.75842e-10 0 2.06472e-07)
(4.24548e-07 5.66395e-09 0 7.99502e-10 0 2.09626e-07)
(4.28487e-07 5.6719e-09 0 8.20068e-10 0 2.13139e-07)
(4.33724e-07 5.73432e-09 0 8.41997e-10 0 2.171e-07)
(4.39287e-07 5.80125e-09 0 8.66388e-10 0 2.20726e-07)
(4.45185e-07 5.91235e-09 0 8.92831e-10 0 2.25078e-07)
(4.50665e-07 6.00518e-09 0 9.24864e-10 0 2.29136e-07)
(4.55779e-07 6.0713e-09 0 9.51828e-10 0 2.32157e-07)
(4.61264e-07 6.11672e-09 0 9.72899e-10 0 2.34714e-07)
(4.67425e-07 6.19936e-09 0 9.98837e-10 0 2.38031e-07)
(4.74195e-07 6.25635e-09 0 1.02659e-09 0 2.41725e-07)
(4.81455e-07 6.33191e-09 0 1.05894e-09 0 2.45888e-07)
(4.87814e-07 6.40323e-09 0 1.08558e-09 0 2.49189e-07)
(4.9182e-07 6.40112e-09 0 1.10653e-09 0 2.51761e-07)
(4.96788e-07 6.37472e-09 0 1.12173e-09 0 2.53394e-07)
(5.00967e-07 6.34296e-09 0 1.12006e-09 0 2.53951e-07)
(5.05748e-07 6.36051e-09 0 1.13546e-09 0 2.54899e-07)
(5.09863e-07 6.32652e-09 0 1.14531e-09 0 2.55042e-07)
(5.1309e-07 6.2613e-09 0 1.14614e-09 0 2.5374e-07)
(5.16178e-07 6.16752e-09 0 1.14688e-09 0 2.51819e-07)
(5.18611e-07 6.03353e-09 0 1.13498e-09 0 2.49891e-07)
(5.21498e-07 5.91235e-09 0 1.11069e-09 0 2.47479e-07)
(5.23608e-07 5.86486e-09 0 1.10315e-09 0 2.45855e-07)
(5.22246e-07 5.75517e-09 0 1.09641e-09 0 2.43315e-07)
(5.1989e-07 5.56272e-09 0 1.0706e-09 0 2.38639e-07)
(5.16444e-07 5.39708e-09 0 1.03348e-09 0 2.33141e-07)
(5.13681e-07 5.16987e-09 0 1.0053e-09 0 2.27524e-07)
(5.09907e-07 5.02564e-09 0 9.69509e-10 0 2.21473e-07)
(5.04108e-07 4.82453e-09 0 9.1984e-10 0 2.13337e-07)
(4.96286e-07 4.59146e-09 0 8.71135e-10 0 2.04974e-07)
(4.88024e-07 4.33868e-09 0 8.26121e-10 0 1.97618e-07)
(4.8063e-07 4.09324e-09 0 7.74481e-10 0 1.89746e-07)
(4.74522e-07 3.93751e-09 0 7.37326e-10 0 1.82846e-07)
(4.66956e-07 3.72188e-09 0 6.94862e-10 0 1.75245e-07)
(4.58954e-07 3.52445e-09 0 6.45635e-10 0 1.67647e-07)
(4.51848e-07 3.31985e-09 0 5.95175e-10 0 1.60398e-07)
(4.46915e-07 3.1763e-09 0 5.58296e-10 0 1.54478e-07)
(4.42274e-07 3.05356e-09 0 5.24017e-10 0 1.49121e-07)
(4.3787e-07 2.95001e-09 0 4.92446e-10 0 1.44367e-07)
(4.33072e-07 2.84081e-09 0 4.64615e-10 0 1.39966e-07)
(4.28149e-07 2.7532e-09 0 4.39177e-10 0 1.35986e-07)
(4.23307e-07 2.66821e-09 0 4.1372e-10 0 1.32143e-07)
(4.18408e-07 2.56996e-09 0 3.90755e-10 0 1.28076e-07)
(4.14863e-07 2.48617e-09 0 3.66594e-10 0 1.24737e-07)
(4.12353e-07 2.44292e-09 0 3.44328e-10 0 1.21773e-07)
(4.1026e-07 2.4308e-09 0 3.2627e-10 0 1.1944e-07)
(4.0795e-07 2.40999e-09 0 3.09188e-10 0 1.17903e-07)
(4.06088e-07 2.41324e-09 0 2.99497e-10 0 1.16703e-07)
(4.04248e-07 2.39638e-09 0 2.85571e-10 0 1.15637e-07)
(4.03084e-07 2.40877e-09 0 2.76268e-10 0 1.15192e-07)
(4.02562e-07 2.42858e-09 0 2.67507e-10 0 1.15153e-07)
(4.02225e-07 2.46534e-09 0 2.57324e-10 0 1.152e-07)
(4.02422e-07 2.51477e-09 0 2.50511e-10 0 1.15627e-07)
(4.02702e-07 2.58726e-09 0 2.48301e-10 0 1.16593e-07)
(4.03024e-07 2.65497e-09 0 2.47011e-10 0 1.17688e-07)
(4.03484e-07 2.73216e-09 0 2.45835e-10 0 1.18886e-07)
(4.03855e-07 2.81687e-09 0 2.4451e-10 0 1.20218e-07)
(4.04291e-07 2.90665e-09 0 2.46061e-10 0 1.21814e-07)
(4.04837e-07 3.00763e-09 0 2.4877e-10 0 1.23809e-07)
(4.05274e-07 3.10625e-09 0 2.50616e-10 0 1.26018e-07)
(4.05568e-07 3.21641e-09 0 2.51933e-10 0 1.28251e-07)
(4.0556e-07 3.33536e-09 0 2.55742e-10 0 1.30522e-07)
(4.05233e-07 3.45302e-09 0 2.60161e-10 0 1.32885e-07)
(1.23191e-06 1.08587e-08 0 8.06861e-10 0 4.11898e-07)
(1.2286e-06 1.12061e-08 0 8.22886e-10 0 4.1932e-07)
(1.22374e-06 1.15288e-08 0 8.40259e-10 0 4.26332e-07)
(1.22032e-06 1.18767e-08 0 8.65061e-10 0 4.33729e-07)
(1.21618e-06 1.21747e-08 0 8.8928e-10 0 4.40872e-07)
(1.21162e-06 1.24789e-08 0 9.11247e-10 0 4.4753e-07)
(1.2057e-06 1.27365e-08 0 9.32211e-10 0 4.53481e-07)
(1.20013e-06 1.2962e-08 0 9.55556e-10 0 4.59229e-07)
(1.19502e-06 1.31802e-08 0 9.84997e-10 0 4.64901e-07)
(1.1904e-06 1.33897e-08 0 1.01093e-09 0 4.70569e-07)
(1.18615e-06 1.35902e-08 0 1.0393e-09 0 4.76203e-07)
(1.18242e-06 1.37394e-08 0 1.06757e-09 0 4.81506e-07)
(1.18e-06 1.39105e-08 0 1.10133e-09 0 4.86536e-07)
(1.17802e-06 1.40528e-08 0 1.13467e-09 0 4.90949e-07)
(1.1765e-06 1.41841e-08 0 1.16862e-09 0 4.95408e-07)
(1.17472e-06 1.43132e-08 0 1.20097e-09 0 4.99718e-07)
(1.17617e-06 1.45574e-08 0 1.26181e-09 0 5.04402e-07)
(1.17943e-06 1.48188e-08 0 1.32969e-09 0 5.09389e-07)
(1.18423e-06 1.51065e-08 0 1.40513e-09 0 5.14951e-07)
(1.18976e-06 1.53847e-08 0 1.4816e-09 0 5.19944e-07)
(1.19608e-06 1.56658e-08 0 1.56171e-09 0 5.24518e-07)
(1.1984e-06 1.57502e-08 0 1.60844e-09 0 5.27997e-07)
(1.2073e-06 1.60423e-08 0 1.69804e-09 0 5.33989e-07)
(1.21742e-06 1.63311e-08 0 1.78777e-09 0 5.40495e-07)
(1.22877e-06 1.6641e-08 0 1.88423e-09 0 5.47546e-07)
(1.23495e-06 1.67883e-08 0 1.94133e-09 0 5.53799e-07)
(1.24645e-06 1.71696e-08 0 2.04858e-09 0 5.62668e-07)
(1.25277e-06 1.73441e-08 0 2.12763e-09 0 5.71025e-07)
(1.26547e-06 1.77095e-08 0 2.25864e-09 0 5.81388e-07)
(1.27528e-06 1.78757e-08 0 2.33538e-09 0 5.89821e-07)
(1.29264e-06 1.83556e-08 0 2.46529e-09 0 6.01373e-07)
(1.30401e-06 1.86301e-08 0 2.55882e-09 0 6.11897e-07)
(1.32153e-06 1.90991e-08 0 2.71263e-09 0 6.25221e-07)
(1.33421e-06 1.93571e-08 0 2.81556e-09 0 6.35577e-07)
(1.34725e-06 1.95405e-08 0 2.89591e-09 0 6.43647e-07)
(1.36719e-06 2.00338e-08 0 3.05211e-09 0 6.54617e-07)
(1.3805e-06 2.03504e-08 0 3.164e-09 0 6.64925e-07)
(1.39188e-06 2.05278e-08 0 3.26056e-09 0 6.75046e-07)
(1.40475e-06 2.05691e-08 0 3.34301e-09 0 6.86298e-07)
(1.42744e-06 2.10235e-08 0 3.49522e-09 0 7.00798e-07)
(1.44556e-06 2.12662e-08 0 3.59369e-09 0 7.12379e-07)
(1.46478e-06 2.16553e-08 0 3.6981e-09 0 7.26259e-07)
(1.48266e-06 2.19839e-08 0 3.82672e-09 0 7.39218e-07)
(1.49927e-06 2.2212e-08 0 3.93316e-09 0 7.48839e-07)
(1.51709e-06 2.23697e-08 0 4.01653e-09 0 7.57017e-07)
(1.53739e-06 2.2663e-08 0 4.12393e-09 0 7.67647e-07)
(1.5593e-06 2.28583e-08 0 4.23122e-09 0 7.79426e-07)
(1.58316e-06 2.31329e-08 0 4.36436e-09 0 7.92739e-07)
(1.61005e-06 2.36399e-08 0 4.54694e-09 0 8.05231e-07)
(1.62326e-06 2.36478e-08 0 4.63069e-09 0 8.13423e-07)
(1.63954e-06 2.35469e-08 0 4.69255e-09 0 8.18567e-07)
(1.65327e-06 2.34315e-08 0 4.68737e-09 0 8.20302e-07)
(1.66265e-06 2.32376e-08 0 4.66553e-09 0 8.21221e-07)
(1.67618e-06 2.31183e-08 0 4.70264e-09 0 8.2159e-07)
(1.68683e-06 2.28767e-08 0 4.70083e-09 0 8.17295e-07)
(1.69702e-06 2.25326e-08 0 4.6983e-09 0 8.11107e-07)
(1.70526e-06 2.20563e-08 0 4.64651e-09 0 8.04843e-07)
(1.71479e-06 2.16214e-08 0 4.54966e-09 0 7.97096e-07)
(1.72173e-06 2.14466e-08 0 4.51839e-09 0 7.91825e-07)
(1.71768e-06 2.10426e-08 0 4.48334e-09 0 7.83511e-07)
(1.70359e-06 2.01539e-08 0 4.30674e-09 0 7.66651e-07)
(1.69269e-06 1.95548e-08 0 4.15578e-09 0 7.4899e-07)
(1.6839e-06 1.87659e-08 0 4.04084e-09 0 7.31025e-07)
(1.6718e-06 1.82311e-08 0 3.89144e-09 0 7.11559e-07)
(1.64661e-06 1.73261e-08 0 3.63302e-09 0 6.83811e-07)
(1.62145e-06 1.64969e-08 0 3.4384e-09 0 6.57105e-07)
(1.59489e-06 1.56041e-08 0 3.25883e-09 0 6.33578e-07)
(1.56487e-06 1.45873e-08 0 3.00846e-09 0 6.07038e-07)
(1.54516e-06 1.40233e-08 0 2.86043e-09 0 5.84983e-07)
(1.51459e-06 1.31183e-08 0 2.64686e-09 0 5.59308e-07)
(1.48896e-06 1.24278e-08 0 2.46024e-09 0 5.35133e-07)
(1.46629e-06 1.17187e-08 0 2.27175e-09 0 5.12152e-07)
(1.44451e-06 1.10894e-08 0 2.09434e-09 0 4.921e-07)
(1.42371e-06 1.05353e-08 0 1.92791e-09 0 4.73846e-07)
(1.40971e-06 1.0184e-08 0 1.81172e-09 0 4.58794e-07)
(1.38846e-06 9.69195e-09 0 1.67646e-09 0 4.43665e-07)
(1.36699e-06 9.28174e-09 0 1.55552e-09 0 4.29962e-07)
(1.35165e-06 9.00196e-09 0 1.46548e-09 0 4.17841e-07)
(1.33032e-06 8.56265e-09 0 1.35624e-09 0 4.03922e-07)
(1.31334e-06 8.17789e-09 0 1.24689e-09 0 3.92351e-07)
(1.29968e-06 7.92707e-09 0 1.14675e-09 0 3.81989e-07)
(1.28737e-06 7.77784e-09 0 1.0629e-09 0 3.73621e-07)
(1.27443e-06 7.60387e-09 0 9.84491e-10 0 3.67756e-07)
(1.26294e-06 7.5052e-09 0 9.3145e-10 0 3.62949e-07)
(1.25519e-06 7.44078e-09 0 8.86718e-10 0 3.59054e-07)
(1.24956e-06 7.46717e-09 0 8.56442e-10 0 3.57096e-07)
(1.24593e-06 7.51641e-09 0 8.27948e-10 0 3.56399e-07)
(1.24287e-06 7.61784e-09 0 7.95143e-10 0 3.55968e-07)
(1.24147e-06 7.75798e-09 0 7.72832e-10 0 3.56708e-07)
(1.24032e-06 7.96867e-09 0 7.64769e-10 0 3.59105e-07)
(1.2393e-06 8.16395e-09 0 7.5956e-10 0 3.61889e-07)
(1.2387e-06 8.38765e-09 0 7.54715e-10 0 3.64978e-07)
(1.23782e-06 8.63361e-09 0 7.49424e-10 0 3.68465e-07)
(1.23713e-06 8.89425e-09 0 7.52946e-10 0 3.72748e-07)
(1.23678e-06 9.18823e-09 0 7.5999e-10 0 3.78234e-07)
(1.23609e-06 9.47398e-09 0 7.64377e-10 0 3.84353e-07)
(1.23698e-06 9.80998e-09 0 7.68394e-10 0 3.91163e-07)
(1.23493e-06 1.01561e-08 0 7.78732e-10 0 3.9744e-07)
(1.23393e-06 1.05144e-08 0 7.9219e-10 0 4.04636e-07)
(3.54892e-06 7.43945e-08 0 9.47296e-09 0 9.72662e-07)
(3.53134e-06 7.64303e-08 0 9.68825e-09 0 9.89377e-07)
(3.52084e-06 7.86236e-08 0 9.95734e-09 0 1.00778e-06)
(3.50729e-06 8.07373e-08 0 1.02748e-08 0 1.02587e-06)
(3.4985e-06 8.2847e-08 0 1.06187e-08 0 1.04469e-06)
(3.49485e-06 8.50881e-08 0 1.09531e-08 0 1.0631e-06)
(3.48291e-06 8.69713e-08 0 1.12728e-08 0 1.07884e-06)
(3.47707e-06 8.87663e-08 0 1.16357e-08 0 1.09525e-06)
(3.47211e-06 9.05166e-08 0 1.20566e-08 0 1.11141e-06)
(3.47021e-06 9.218e-08 0 1.24577e-08 0 1.12677e-06)
(3.46937e-06 9.38487e-08 0 1.29075e-08 0 1.14191e-06)
(3.4711e-06 9.53493e-08 0 1.33692e-08 0 1.15616e-06)
(3.47621e-06 9.68891e-08 0 1.386e-08 0 1.1693e-06)
(3.48248e-06 9.8281e-08 0 1.43535e-08 0 1.18129e-06)
(3.49088e-06 9.96089e-08 0 1.48477e-08 0 1.19321e-06)
(3.49972e-06 1.0098e-07 0 1.53458e-08 0 1.20483e-06)
(3.50936e-06 1.02208e-07 0 1.58607e-08 0 1.21611e-06)
(3.52294e-06 1.03382e-07 0 1.64149e-08 0 1.22768e-06)
(3.53581e-06 1.0452e-07 0 1.69943e-08 0 1.23816e-06)
(3.55137e-06 1.05658e-07 0 1.7594e-08 0 1.24707e-06)
(3.57455e-06 1.06926e-07 0 1.82374e-08 0 1.25685e-06)
(3.59537e-06 1.07992e-07 0 1.88565e-08 0 1.26648e-06)
(3.61989e-06 1.09102e-07 0 1.9526e-08 0 1.27828e-06)
(3.64856e-06 1.10258e-07 0 2.02083e-08 0 1.29144e-06)
(3.6747e-06 1.11373e-07 0 2.0882e-08 0 1.30429e-06)
(3.70717e-06 1.12915e-07 0 2.16168e-08 0 1.32038e-06)
(3.73394e-06 1.14366e-07 0 2.23765e-08 0 1.33731e-06)
(3.76131e-06 1.15919e-07 0 2.32718e-08 0 1.35643e-06)
(3.79206e-06 1.17393e-07 0 2.42298e-08 0 1.3759e-06)
(3.82897e-06 1.18817e-07 0 2.50982e-08 0 1.39558e-06)
(3.873e-06 1.20901e-07 0 2.60321e-08 0 1.4182e-06)
(3.9141e-06 1.22995e-07 0 2.70215e-08 0 1.44094e-06)
(3.9512e-06 1.24757e-07 0 2.81081e-08 0 1.46397e-06)
(3.98866e-06 1.26459e-07 0 2.91271e-08 0 1.48435e-06)
(4.03297e-06 1.27894e-07 0 3.00506e-08 0 1.50309e-06)
(4.07475e-06 1.29555e-07 0 3.10569e-08 0 1.52239e-06)
(4.11509e-06 1.31525e-07 0 3.21326e-08 0 1.54373e-06)
(4.15426e-06 1.33007e-07 0 3.31492e-08 0 1.56739e-06)
(4.19692e-06 1.33922e-07 0 3.40153e-08 0 1.59316e-06)
(4.24353e-06 1.35369e-07 0 3.49095e-08 0 1.61902e-06)
(4.29768e-06 1.37113e-07 0 3.5902e-08 0 1.64383e-06)
(4.35523e-06 1.39389e-07 0 3.69153e-08 0 1.67235e-06)
(4.40191e-06 1.41062e-07 0 3.80406e-08 0 1.69693e-06)
(4.45052e-06 1.42358e-07 0 3.90474e-08 0 1.7169e-06)
(4.49786e-06 1.43156e-07 0 3.98221e-08 0 1.73379e-06)
(4.55355e-06 1.44591e-07 0 4.07642e-08 0 1.7541e-06)
(4.61197e-06 1.45611e-07 0 4.1759e-08 0 1.77806e-06)
(4.67596e-06 1.47139e-07 0 4.2908e-08 0 1.80282e-06)
(4.73838e-06 1.49038e-07 0 4.3941e-08 0 1.82353e-06)
(4.77798e-06 1.49572e-07 0 4.46735e-08 0 1.8384e-06)
(4.82058e-06 1.4886e-07 0 4.52167e-08 0 1.84574e-06)
(4.8629e-06 1.48114e-07 0 4.52307e-08 0 1.84767e-06)
(4.90124e-06 1.47918e-07 0 4.55852e-08 0 1.84877e-06)
(4.94078e-06 1.47316e-07 0 4.58499e-08 0 1.84641e-06)
(4.97206e-06 1.45823e-07 0 4.56984e-08 0 1.83386e-06)
(5.00433e-06 1.43477e-07 0 4.55222e-08 0 1.81951e-06)
(5.0286e-06 1.4077e-07 0 4.49157e-08 0 1.80244e-06)
(5.05951e-06 1.38132e-07 0 4.40186e-08 0 1.78516e-06)
(5.07521e-06 1.36531e-07 0 4.35699e-08 0 1.76851e-06)
(5.07656e-06 1.34155e-07 0 4.30966e-08 0 1.74736e-06)
(5.05877e-06 1.30316e-07 0 4.20248e-08 0 1.71222e-06)
(5.03461e-06 1.26496e-07 0 4.05125e-08 0 1.67258e-06)
(5.0114e-06 1.22114e-07 0 3.91975e-08 0 1.63253e-06)
(4.97922e-06 1.18284e-07 0 3.75943e-08 0 1.58771e-06)
(4.92981e-06 1.13903e-07 0 3.57402e-08 0 1.52951e-06)
(4.86474e-06 1.08704e-07 0 3.37593e-08 0 1.47352e-06)
(4.79127e-06 1.03256e-07 0 3.19092e-08 0 1.42128e-06)
(4.7298e-06 9.81565e-08 0 2.99817e-08 0 1.36965e-06)
(4.66754e-06 9.39907e-08 0 2.83812e-08 0 1.31956e-06)
(4.6013e-06 8.95654e-08 0 2.67215e-08 0 1.26706e-06)
(4.52924e-06 8.50898e-08 0 2.49178e-08 0 1.21509e-06)
(4.46426e-06 8.02583e-08 0 2.29795e-08 0 1.16632e-06)
(4.41528e-06 7.68171e-08 0 2.14737e-08 0 1.12564e-06)
(4.36547e-06 7.3823e-08 0 2.00826e-08 0 1.08802e-06)
(4.32128e-06 7.15012e-08 0 1.88329e-08 0 1.05459e-06)
(4.26646e-06 6.90507e-08 0 1.77418e-08 0 1.02297e-06)
(4.21268e-06 6.69544e-08 0 1.67325e-08 0 9.9467e-07)
(4.1583e-06 6.51841e-08 0 1.57381e-08 0 9.66534e-07)
(4.10328e-06 6.29745e-08 0 1.48237e-08 0 9.38681e-07)
(4.05831e-06 6.11228e-08 0 1.39233e-08 0 9.16626e-07)
(4.02021e-06 5.98712e-08 0 1.30875e-08 0 8.9758e-07)
(3.97964e-06 5.90082e-08 0 1.23357e-08 0 8.81143e-07)
(3.94024e-06 5.8408e-08 0 1.17033e-08 0 8.69813e-07)
(3.90886e-06 5.81527e-08 0 1.12416e-08 0 8.61639e-07)
(3.87407e-06 5.76965e-08 0 1.07388e-08 0 8.54342e-07)
(3.8433e-06 5.75577e-08 0 1.03434e-08 0 8.5091e-07)
(3.81714e-06 5.76173e-08 0 9.98131e-09 0 8.49369e-07)
(3.79216e-06 5.79852e-08 0 9.61757e-09 0 8.48454e-07)
(3.76872e-06 5.85819e-08 0 9.33784e-09 0 8.50391e-07)
(3.74643e-06 5.94745e-08 0 9.18659e-09 0 8.55262e-07)
(3.72318e-06 6.03852e-08 0 9.06979e-09 0 8.61371e-07)
(3.70044e-06 6.14327e-08 0 8.97688e-09 0 8.67926e-07)
(3.67753e-06 6.25736e-08 0 8.89827e-09 0 8.75018e-07)
(3.65407e-06 6.38019e-08 0 8.87297e-09 0 8.83928e-07)
(3.63604e-06 6.53596e-08 0 8.92614e-09 0 8.96746e-07)
(3.61668e-06 6.68715e-08 0 8.96689e-09 0 9.10064e-07)
(3.60037e-06 6.86154e-08 0 9.02009e-09 0 9.24627e-07)
(3.57983e-06 7.04895e-08 0 9.13633e-09 0 9.3996e-07)
(3.56331e-06 7.23129e-08 0 9.2792e-09 0 9.55517e-07)
(6.2719e-06 1.81975e-07 0 2.68159e-08 0 1.59696e-06)
(6.22931e-06 1.86453e-07 0 2.75198e-08 0 1.62423e-06)
(6.19428e-06 1.91343e-07 0 2.83738e-08 0 1.65305e-06)
(6.17013e-06 1.96429e-07 0 2.94088e-08 0 1.68387e-06)
(6.15252e-06 2.01584e-07 0 3.05224e-08 0 1.7151e-06)
(6.14508e-06 2.07536e-07 0 3.17544e-08 0 1.74689e-06)
(6.13149e-06 2.12652e-07 0 3.29141e-08 0 1.77439e-06)
(6.12296e-06 2.17716e-07 0 3.42678e-08 0 1.80255e-06)
(6.12568e-06 2.2276e-07 0 3.57418e-08 0 1.83092e-06)
(6.12682e-06 2.27362e-07 0 3.71765e-08 0 1.85641e-06)
(6.13775e-06 2.32322e-07 0 3.8815e-08 0 1.88237e-06)
(6.14902e-06 2.36646e-07 0 4.03996e-08 0 1.90501e-06)
(6.16973e-06 2.41432e-07 0 4.22085e-08 0 1.92728e-06)
(6.19029e-06 2.45517e-07 0 4.3859e-08 0 1.94616e-06)
(6.22037e-06 2.50005e-07 0 4.57027e-08 0 1.96639e-06)
(6.2483e-06 2.5425e-07 0 4.74712e-08 0 1.98469e-06)
(6.27961e-06 2.5826e-07 0 4.92416e-08 0 2.00261e-06)
(6.31666e-06 2.62138e-07 0 5.11653e-08 0 2.02047e-06)
(6.35445e-06 2.65882e-07 0 5.31361e-08 0 2.03643e-06)
(6.4036e-06 2.69982e-07 0 5.53003e-08 0 2.0516e-06)
(6.45176e-06 2.73497e-07 0 5.73448e-08 0 2.06476e-06)
(6.50516e-06 2.77141e-07 0 5.95454e-08 0 2.07995e-06)
(6.55735e-06 2.8043e-07 0 6.16579e-08 0 2.09693e-06)
(6.61588e-06 2.83931e-07 0 6.38941e-08 0 2.11646e-06)
(6.67969e-06 2.87854e-07 0 6.63012e-08 0 2.13869e-06)
(6.74096e-06 2.9207e-07 0 6.8671e-08 0 2.16127e-06)
(6.80017e-06 2.96394e-07 0 7.11233e-08 0 2.1866e-06)
(6.86137e-06 3.00975e-07 0 7.39442e-08 0 2.21479e-06)
(6.92935e-06 3.05466e-07 0 7.70547e-08 0 2.24425e-06)
(7e-06 3.09414e-07 0 7.98614e-08 0 2.27301e-06)
(7.07312e-06 3.14177e-07 0 8.25364e-08 0 2.30285e-06)
(7.15169e-06 3.19782e-07 0 8.56705e-08 0 2.33497e-06)
(7.22415e-06 3.24649e-07 0 8.90914e-08 0 2.36681e-06)
(7.29779e-06 3.2909e-07 0 9.21469e-08 0 2.39559e-06)
(7.37417e-06 3.32589e-07 0 9.49746e-08 0 2.42166e-06)
(7.44686e-06 3.3654e-07 0 9.78755e-08 0 2.4488e-06)
(7.521e-06 3.41216e-07 0 1.01072e-07 0 2.47976e-06)
(7.59565e-06 3.45005e-07 0 1.04069e-07 0 2.51485e-06)
(7.67878e-06 3.4822e-07 0 1.06824e-07 0 2.55421e-06)
(7.76536e-06 3.52114e-07 0 1.09534e-07 0 2.59157e-06)
(7.86512e-06 3.56777e-07 0 1.12596e-07 0 2.62712e-06)
(7.96081e-06 3.61338e-07 0 1.15327e-07 0 2.66382e-06)
(8.05201e-06 3.65568e-07 0 1.18435e-07 0 2.69878e-06)
(8.13778e-06 3.68343e-07 0 1.21203e-07 0 2.72616e-06)
(8.22663e-06 3.70418e-07 0 1.23604e-07 0 2.75241e-06)
(8.32081e-06 3.73035e-07 0 1.26055e-07 0 2.77988e-06)
(8.43394e-06 3.75981e-07 0 1.29025e-07 0 2.81526e-06)
(8.54729e-06 3.7949e-07 0 1.32027e-07 0 2.84685e-06)
(8.64917e-06 3.83305e-07 0 1.34625e-07 0 2.86972e-06)
(8.73453e-06 3.8522e-07 0 1.36575e-07 0 2.88918e-06)
(8.81831e-06 3.83606e-07 0 1.37971e-07 0 2.89557e-06)
(8.90632e-06 3.82149e-07 0 1.38192e-07 0 2.89545e-06)
(8.9946e-06 3.81932e-07 0 1.39031e-07 0 2.89503e-06)
(9.07418e-06 3.80792e-07 0 1.39304e-07 0 2.88542e-06)
(9.15082e-06 3.77451e-07 0 1.38466e-07 0 2.86324e-06)
(9.22032e-06 3.71577e-07 0 1.37365e-07 0 2.84054e-06)
(9.29032e-06 3.65523e-07 0 1.35363e-07 0 2.81472e-06)
(9.35436e-06 3.59541e-07 0 1.32679e-07 0 2.786e-06)
(9.40719e-06 3.55318e-07 0 1.31109e-07 0 2.75611e-06)
(9.43577e-06 3.49594e-07 0 1.29054e-07 0 2.71874e-06)
(9.43132e-06 3.41044e-07 0 1.25638e-07 0 2.6646e-06)
(9.41126e-06 3.31655e-07 0 1.2116e-07 0 2.60575e-06)
(9.3936e-06 3.21787e-07 0 1.16774e-07 0 2.54624e-06)
(9.36008e-06 3.128e-07 0 1.11849e-07 0 2.47806e-06)
(9.29755e-06 3.02249e-07 0 1.06477e-07 0 2.39209e-06)
(9.20961e-06 2.90008e-07 0 1.00393e-07 0 2.31033e-06)
(9.11442e-06 2.7772e-07 0 9.49945e-08 0 2.2357e-06)
(9.01947e-06 2.65047e-07 0 8.91274e-08 0 2.15874e-06)
(8.92707e-06 2.54503e-07 0 8.42492e-08 0 2.0851e-06)
(8.8189e-06 2.43821e-07 0 7.92838e-08 0 2.00784e-06)
(8.70815e-06 2.32579e-07 0 7.40276e-08 0 1.93127e-06)
(8.60614e-06 2.20985e-07 0 6.86602e-08 0 1.86216e-06)
(8.51518e-06 2.11723e-07 0 6.39125e-08 0 1.80175e-06)
(8.43303e-06 2.04086e-07 0 5.97423e-08 0 1.74712e-06)
(8.34908e-06 1.98229e-07 0 5.61311e-08 0 1.69852e-06)
(8.24708e-06 1.92166e-07 0 5.28649e-08 0 1.65256e-06)
(8.1417e-06 1.86392e-07 0 4.96874e-08 0 1.61016e-06)
(8.03838e-06 1.81814e-07 0 4.67843e-08 0 1.56972e-06)
(7.92806e-06 1.76241e-07 0 4.41015e-08 0 1.53115e-06)
(7.8263e-06 1.7125e-07 0 4.13597e-08 0 1.49895e-06)
(7.73264e-06 1.67448e-07 0 3.89232e-08 0 1.47239e-06)
(7.63589e-06 1.64418e-07 0 3.66508e-08 0 1.44988e-06)
(7.54361e-06 1.62282e-07 0 3.48194e-08 0 1.43423e-06)
(7.45322e-06 1.60564e-07 0 3.32527e-08 0 1.42186e-06)
(7.366e-06 1.58935e-07 0 3.17483e-08 0 1.41294e-06)
(7.27619e-06 1.57584e-07 0 3.04455e-08 0 1.40804e-06)
(7.19901e-06 1.56946e-07 0 2.93139e-08 0 1.40658e-06)
(7.1142e-06 1.56838e-07 0 2.81808e-08 0 1.4054e-06)
(7.03853e-06 1.57185e-07 0 2.73616e-08 0 1.40892e-06)
(6.95467e-06 1.57973e-07 0 2.67526e-08 0 1.41626e-06)
(6.87789e-06 1.59009e-07 0 2.6308e-08 0 1.42573e-06)
(6.7939e-06 1.59884e-07 0 2.58857e-08 0 1.43429e-06)
(6.71653e-06 1.61326e-07 0 2.55621e-08 0 1.44563e-06)
(6.6437e-06 1.63322e-07 0 2.54143e-08 0 1.46109e-06)
(6.57016e-06 1.65483e-07 0 2.54042e-08 0 1.47938e-06)
(6.50265e-06 1.68e-07 0 2.54501e-08 0 1.49973e-06)
(6.42811e-06 1.70731e-07 0 2.55053e-08 0 1.52061e-06)
(6.37261e-06 1.74033e-07 0 2.57975e-08 0 1.54447e-06)
(6.32311e-06 1.78095e-07 0 2.62927e-08 0 1.5715e-06)
(9.23153e-06 3.37119e-07 0 5.54635e-08 0 2.26903e-06)
(9.13619e-06 3.43929e-07 0 5.69382e-08 0 2.30456e-06)
(9.05604e-06 3.52022e-07 0 5.8881e-08 0 2.34369e-06)
(8.98946e-06 3.60497e-07 0 6.12408e-08 0 2.38598e-06)
(8.94016e-06 3.69829e-07 0 6.39514e-08 0 2.43055e-06)
(8.89669e-06 3.79543e-07 0 6.67829e-08 0 2.47221e-06)
(8.86064e-06 3.88995e-07 0 6.97677e-08 0 2.51153e-06)
(8.83454e-06 3.9812e-07 0 7.29924e-08 0 2.55024e-06)
(8.80776e-06 4.06236e-07 0 7.64057e-08 0 2.58558e-06)
(8.80068e-06 4.14927e-07 0 8.00065e-08 0 2.62148e-06)
(8.79768e-06 4.23252e-07 0 8.38064e-08 0 2.65367e-06)
(8.80395e-06 4.31288e-07 0 8.77415e-08 0 2.68301e-06)
(8.82314e-06 4.39678e-07 0 9.18742e-08 0 2.71102e-06)
(8.84773e-06 4.47388e-07 0 9.59315e-08 0 2.73514e-06)
(8.88159e-06 4.55209e-07 0 1.00007e-07 0 2.75891e-06)
(8.92332e-06 4.63387e-07 0 1.04247e-07 0 2.78207e-06)
(8.96799e-06 4.70972e-07 0 1.08435e-07 0 2.80356e-06)
(9.02588e-06 4.78809e-07 0 1.13045e-07 0 2.82583e-06)
(9.08273e-06 4.85963e-07 0 1.17552e-07 0 2.84427e-06)
(9.15307e-06 4.9341e-07 0 1.22461e-07 0 2.86186e-06)
(9.22679e-06 5.00109e-07 0 1.27295e-07 0 2.87802e-06)
(9.30199e-06 5.06633e-07 0 1.32029e-07 0 2.89536e-06)
(9.38452e-06 5.13424e-07 0 1.37044e-07 0 2.91647e-06)
(9.4685e-06 5.19998e-07 0 1.42076e-07 0 2.94071e-06)
(9.56053e-06 5.27337e-07 0 1.4743e-07 0 2.96889e-06)
(9.65255e-06 5.35449e-07 0 1.52717e-07 0 2.99743e-06)
(9.74294e-06 5.43824e-07 0 1.58244e-07 0 3.02825e-06)
(9.83353e-06 5.52149e-07 0 1.64411e-07 0 3.06051e-06)
(9.93055e-06 5.60188e-07 0 1.70824e-07 0 3.09483e-06)
(1.00326e-05 5.67589e-07 0 1.76914e-07 0 3.12957e-06)
(1.01398e-05 5.7623e-07 0 1.829e-07 0 3.16547e-06)
(1.02479e-05 5.85802e-07 0 1.8955e-07 0 3.20179e-06)
(1.03496e-05 5.94229e-07 0 1.96461e-07 0 3.23711e-06)
(1.04572e-05 6.02122e-07 0 2.02947e-07 0 3.27082e-06)
(1.05676e-05 6.08728e-07 0 2.08962e-07 0 3.30357e-06)
(1.0677e-05 6.16175e-07 0 2.15139e-07 0 3.3385e-06)
(1.07875e-05 6.24307e-07 0 2.21655e-07 0 3.37762e-06)
(1.09011e-05 6.3111e-07 0 2.28128e-07 0 3.42239e-06)
(1.10217e-05 6.37495e-07 0 2.33855e-07 0 3.47149e-06)
(1.11541e-05 6.45426e-07 0 2.39739e-07 0 3.51748e-06)
(1.12904e-05 6.53167e-07 0 2.45638e-07 0 3.55707e-06)
(1.14322e-05 6.60673e-07 0 2.51257e-07 0 3.59841e-06)
(1.15703e-05 6.68178e-07 0 2.57163e-07 0 3.63941e-06)
(1.1698e-05 6.7319e-07 0 2.62444e-07 0 3.67203e-06)
(1.18336e-05 6.77293e-07 0 2.6753e-07 0 3.70502e-06)
(1.19783e-05 6.81674e-07 0 2.7259e-07 0 3.73944e-06)
(1.21365e-05 6.86473e-07 0 2.77895e-07 0 3.77773e-06)
(1.23079e-05 6.93084e-07 0 2.83738e-07 0 3.81304e-06)
(1.24651e-05 6.99635e-07 0 2.88685e-07 0 3.8366e-06)
(1.26134e-05 7.03998e-07 0 2.92253e-07 0 3.85669e-06)
(1.27537e-05 7.02717e-07 0 2.94696e-07 0 3.86127e-06)
(1.29009e-05 7.0112e-07 0 2.95311e-07 0 3.85676e-06)
(1.30444e-05 7.00271e-07 0 2.96092e-07 0 3.84752e-06)
(1.32012e-05 7.00401e-07 0 2.96433e-07 0 3.83199e-06)
(1.33404e-05 6.95327e-07 0 2.93901e-07 0 3.8016e-06)
(1.34816e-05 6.86106e-07 0 2.90735e-07 0 3.77165e-06)
(1.36214e-05 6.77356e-07 0 2.86283e-07 0 3.73916e-06)
(1.37482e-05 6.68234e-07 0 2.80443e-07 0 3.69962e-06)
(1.38594e-05 6.60813e-07 0 2.76581e-07 0 3.65409e-06)
(1.39455e-05 6.51864e-07 0 2.71692e-07 0 3.60048e-06)
(1.39961e-05 6.39102e-07 0 2.64373e-07 0 3.53239e-06)
(1.4022e-05 6.23245e-07 0 2.54884e-07 0 3.45852e-06)
(1.40434e-05 6.08034e-07 0 2.45583e-07 0 3.38537e-06)
(1.40416e-05 5.92707e-07 0 2.34665e-07 0 3.29535e-06)
(1.40016e-05 5.7477e-07 0 2.2348e-07 0 3.18934e-06)
(1.39464e-05 5.55426e-07 0 2.11039e-07 0 3.0912e-06)
(1.3865e-05 5.35024e-07 0 1.99501e-07 0 2.99868e-06)
(1.37691e-05 5.13474e-07 0 1.87394e-07 0 2.90384e-06)
(1.36721e-05 4.9496e-07 0 1.77123e-07 0 2.81319e-06)
(1.35558e-05 4.75859e-07 0 1.6608e-07 0 2.71742e-06)
(1.34314e-05 4.56297e-07 0 1.55489e-07 0 2.62352e-06)
(1.33108e-05 4.36072e-07 0 1.44608e-07 0 2.53946e-06)
(1.3195e-05 4.19663e-07 0 1.3504e-07 0 2.46735e-06)
(1.30787e-05 4.05696e-07 0 1.26527e-07 0 2.40005e-06)
(1.29562e-05 3.94438e-07 0 1.18579e-07 0 2.33974e-06)
(1.28188e-05 3.83888e-07 0 1.11713e-07 0 2.28522e-06)
(1.26566e-05 3.73003e-07 0 1.05197e-07 0 2.23326e-06)
(1.25015e-05 3.63838e-07 0 9.89829e-08 0 2.1855e-06)
(1.23332e-05 3.53708e-07 0 9.32828e-08 0 2.14211e-06)
(1.21688e-05 3.44527e-07 0 8.76942e-08 0 2.10458e-06)
(1.2007e-05 3.36693e-07 0 8.25288e-08 0 2.07452e-06)
(1.18448e-05 3.30248e-07 0 7.78934e-08 0 2.04951e-06)
(1.16863e-05 3.25473e-07 0 7.40152e-08 0 2.03241e-06)
(1.15222e-05 3.21038e-07 0 7.05759e-08 0 2.01844e-06)
(1.13624e-05 3.169e-07 0 6.74246e-08 0 2.00892e-06)
(1.12068e-05 3.13569e-07 0 6.46564e-08 0 2.00518e-06)
(1.10506e-05 3.11163e-07 0 6.20894e-08 0 2.00478e-06)
(1.08954e-05 3.09815e-07 0 5.97848e-08 0 2.00615e-06)
(1.07343e-05 3.0851e-07 0 5.78702e-08 0 2.01101e-06)
(1.05807e-05 3.08267e-07 0 5.64885e-08 0 2.02218e-06)
(1.0424e-05 3.08515e-07 0 5.5348e-08 0 2.03533e-06)
(1.02665e-05 3.08834e-07 0 5.43635e-08 0 2.04908e-06)
(1.01186e-05 3.09855e-07 0 5.35684e-08 0 2.06564e-06)
(9.96898e-06 3.11269e-07 0 5.29739e-08 0 2.08523e-06)
(9.82679e-06 3.13303e-07 0 5.26864e-08 0 2.10888e-06)
(9.69083e-06 3.16543e-07 0 5.26717e-08 0 2.13624e-06)
(9.56236e-06 3.20517e-07 0 5.28023e-08 0 2.16584e-06)
(9.44045e-06 3.25006e-07 0 5.32985e-08 0 2.19759e-06)
(9.33522e-06 3.30957e-07 0 5.42836e-08 0 2.23362e-06)
(1.17077e-05 5.31834e-07 0 1.01027e-07 0 2.93678e-06)
(1.1546e-05 5.40185e-07 0 1.03788e-07 0 2.97994e-06)
(1.1414e-05 5.50621e-07 0 1.07263e-07 0 3.02888e-06)
(1.13078e-05 5.61576e-07 0 1.11285e-07 0 3.08175e-06)
(1.12246e-05 5.73559e-07 0 1.15671e-07 0 3.136e-06)
(1.11631e-05 5.86546e-07 0 1.20404e-07 0 3.18883e-06)
(1.10764e-05 5.98316e-07 0 1.2603e-07 0 3.2349e-06)
(1.10018e-05 6.09659e-07 0 1.32179e-07 0 3.27877e-06)
(1.09385e-05 6.20028e-07 0 1.38616e-07 0 3.31975e-06)
(1.08922e-05 6.30413e-07 0 1.4537e-07 0 3.35901e-06)
(1.08621e-05 6.40952e-07 0 1.5248e-07 0 3.39468e-06)
(1.0846e-05 6.51252e-07 0 1.59843e-07 0 3.4264e-06)
(1.08445e-05 6.61403e-07 0 1.67376e-07 0 3.45493e-06)
(1.08591e-05 6.71533e-07 0 1.74792e-07 0 3.48105e-06)
(1.08895e-05 6.82142e-07 0 1.82457e-07 0 3.50586e-06)
(1.0932e-05 6.9309e-07 0 1.90197e-07 0 3.5286e-06)
(1.09854e-05 7.04015e-07 0 1.98036e-07 0 3.55153e-06)
(1.10503e-05 7.14815e-07 0 2.06244e-07 0 3.57393e-06)
(1.11233e-05 7.25385e-07 0 2.14717e-07 0 3.59366e-06)
(1.1205e-05 7.35499e-07 0 2.23366e-07 0 3.61274e-06)
(1.12913e-05 7.44454e-07 0 2.31769e-07 0 3.63016e-06)
(1.13877e-05 7.5405e-07 0 2.40538e-07 0 3.64977e-06)
(1.14899e-05 7.64201e-07 0 2.49469e-07 0 3.67292e-06)
(1.15941e-05 7.73796e-07 0 2.58511e-07 0 3.69978e-06)
(1.17082e-05 7.84581e-07 0 2.68011e-07 0 3.73186e-06)
(1.18206e-05 7.96252e-07 0 2.77168e-07 0 3.76334e-06)
(1.19341e-05 8.08336e-07 0 2.86879e-07 0 3.79627e-06)
(1.20505e-05 8.20323e-07 0 2.9744e-07 0 3.82987e-06)
(1.21714e-05 8.31877e-07 0 3.08201e-07 0 3.86493e-06)
(1.23009e-05 8.43293e-07 0 3.18876e-07 0 3.90281e-06)
(1.243e-05 8.55154e-07 0 3.29051e-07 0 3.94023e-06)
(1.25614e-05 8.68444e-07 0 3.40296e-07 0 3.97831e-06)
(1.2693e-05 8.81008e-07 0 3.52183e-07 0 4.01491e-06)
(1.28306e-05 8.92621e-07 0 3.63165e-07 0 4.05166e-06)
(1.29674e-05 9.02441e-07 0 3.73122e-07 0 4.08861e-06)
(1.31128e-05 9.14151e-07 0 3.83638e-07 0 4.13147e-06)
(1.32538e-05 9.25559e-07 0 3.94181e-07 0 4.1763e-06)
(1.34031e-05 9.35909e-07 0 4.05094e-07 0 4.22845e-06)
(1.35619e-05 9.46518e-07 0 4.15155e-07 0 4.285e-06)
(1.3729e-05 9.58465e-07 0 4.24678e-07 0 4.33385e-06)
(1.39051e-05 9.6999e-07 0 4.34201e-07 0 4.37579e-06)
(1.40858e-05 9.8052e-07 0 4.43159e-07 0 4.41689e-06)
(1.42689e-05 9.91431e-07 0 4.52411e-07 0 4.45979e-06)
(1.44507e-05 1.00065e-06 0 4.61302e-07 0 4.49679e-06)
(1.46307e-05 1.00721e-06 0 4.69339e-07 0 4.53104e-06)
(1.48191e-05 1.01319e-06 0 4.77007e-07 0 4.56717e-06)
(1.5034e-05 1.02175e-06 0 4.85536e-07 0 4.6087e-06)
(1.52522e-05 1.03138e-06 0 4.941e-07 0 4.64172e-06)