/*--------------------------------*- C++ -*----------------------------------*\
| =========                 |                                                 |
| \\      /  F ield         | OpenFOAM: The Open Source CFD Toolbox           |
|  \\    /   O peration     | Version:  2306                                  |
|   \\  /    A nd           | Website:  www.openfoam.com                      |
|    \\/     M anipulation  |                                                 |
\*---------------------------------------------------------------------------*/
// * * * * * * * * * * * * * * * * * * * * * * * * * * * * * * * * * * * * * //
FoamFile
{
    version         2;
    format          ascii;
    class           volSymmTensorField;
    location        "7258.82999998519063";
    object          R;
}

dimensions      [ 0 2 -2 0 0 0 0 ];

internalField   nonuniform List<symmTensor> 
14751
(
(1.76655e-05 1.76957e-05 0 1.76618e-05 0 1.76641e-05)
(1.75174e-05 1.75156e-05 1.29467e-31 1.75135e-05 7.60111e-28 1.75169e-05)
(1.73935e-05 1.73688e-05 3.2352e-29 1.73952e-05 8.21431e-29 1.73945e-05)
(1.72053e-05 1.71892e-05 -8.96054e-29 1.72118e-05 -6.23263e-27 1.72089e-05)
(1.70113e-05 1.70145e-05 1.39888e-27 1.70219e-05 9.22274e-29 1.70164e-05)
(1.67849e-05 1.68306e-05 -7.02485e-28 1.68002e-05 -5.86368e-29 1.67921e-05)
(1.65412e-05 1.66424e-05 -1.84801e-30 1.65599e-05 2.80905e-26 1.65497e-05)
(1.62821e-05 1.64548e-05 -6.16162e-28 1.63044e-05 3.45959e-26 1.62921e-05)
(1.60095e-05 1.62664e-05 2.21081e-29 1.60347e-05 -4.0138e-26 1.60208e-05)
(1.57323e-05 1.60839e-05 -1.16549e-30 1.576e-05 3.66926e-29 1.57447e-05)
(1.54535e-05 1.59096e-05 5.92509e-28 1.54832e-05 5.24728e-26 1.54667e-05)
(1.51778e-05 1.57465e-05 -1.07365e-29 1.52092e-05 -2.14766e-35 1.51916e-05)
(1.49071e-05 1.55955e-05 -7.24047e-30 1.49398e-05 6.51342e-26 1.49214e-05)
(1.46436e-05 1.54572e-05 -3.00799e-28 1.46773e-05 -3.38405e-27 1.46583e-05)
(1.43896e-05 1.53327e-05 -2.76148e-28 1.44239e-05 -2.34007e-28 1.44045e-05)
(1.41467e-05 1.52224e-05 7.76471e-30 1.41813e-05 2.43835e-27 1.41616e-05)
(1.39164e-05 1.51269e-05 0 1.39511e-05 0 1.39313e-05)
(1.36996e-05 1.5046e-05 -4.91272e-30 1.3734e-05 -2.8864e-27 1.37144e-05)
(1.34969e-05 1.49796e-05 -1.4033e-28 1.3531e-05 -9.20284e-26 1.35115e-05)
(1.33089e-05 1.49275e-05 5.39344e-30 1.33423e-05 -6.30569e-27 1.33231e-05)
(1.31354e-05 1.48891e-05 9.54104e-30 1.31681e-05 -1.96098e-28 1.31493e-05)
(1.29764e-05 1.48638e-05 6.20628e-29 1.30081e-05 6.68395e-26 1.29898e-05)
(1.28314e-05 1.48508e-05 -2.52793e-30 1.28621e-05 -6.81141e-27 1.28443e-05)
(1.26998e-05 1.48489e-05 -4.54796e-34 1.27295e-05 -3.5862e-27 1.27123e-05)
(1.25816e-05 1.4858e-05 3.97901e-31 1.26102e-05 3.6068e-27 1.25936e-05)
(1.24757e-05 1.48766e-05 3.12569e-30 1.2503e-05 -3.74163e-27 1.24871e-05)
(1.23818e-05 1.49042e-05 -8.42702e-29 1.2408e-05 6.45395e-26 1.23926e-05)
(1.22988e-05 1.49396e-05 1.1488e-29 1.23237e-05 5.80338e-26 1.23091e-05)
(1.22266e-05 1.49822e-05 1.20197e-32 1.22503e-05 7.07286e-26 1.22363e-05)
(1.21643e-05 1.50314e-05 1.0126e-29 1.21867e-05 -3.95339e-27 1.21735e-05)
(1.21115e-05 1.50864e-05 5.58252e-29 1.21326e-05 3.22432e-26 1.21201e-05)
(1.20674e-05 1.51468e-05 -7.03368e-29 1.20873e-05 -2.07237e-27 1.20755e-05)
(1.20315e-05 1.52117e-05 -3.68791e-30 1.20502e-05 2.03912e-27 1.2039e-05)
(1.20034e-05 1.52807e-05 -6.59824e-29 1.2021e-05 -3.30211e-26 1.20104e-05)
(1.19824e-05 1.53534e-05 3.57567e-29 1.19988e-05 -2.05461e-27 1.19889e-05)
(1.19684e-05 1.54291e-05 2.50148e-31 1.19836e-05 3.73955e-26 1.19744e-05)
(1.19609e-05 1.55078e-05 -5.87336e-29 1.1975e-05 -3.43392e-26 1.19664e-05)
(1.19594e-05 1.55889e-05 -1.16795e-27 1.19724e-05 -1.77407e-27 1.19644e-05)
(1.19635e-05 1.56722e-05 6.20271e-29 1.19755e-05 -1.03349e-27 1.19681e-05)
(1.19732e-05 1.57573e-05 -1.25245e-31 1.19842e-05 2.07459e-27 1.19774e-05)
(1.19885e-05 1.58441e-05 7.78853e-32 1.19984e-05 -1.86105e-26 1.19921e-05)
(1.20084e-05 1.59325e-05 -2.82639e-33 1.20174e-05 1.03317e-27 1.20117e-05)
(1.20328e-05 1.60222e-05 -4.33016e-32 1.20408e-05 1.63707e-26 1.20356e-05)
(1.20613e-05 1.61128e-05 1.44712e-29 1.20684e-05 -7.62292e-27 1.20637e-05)
(1.20936e-05 1.62042e-05 3.04018e-28 1.20998e-05 7.23874e-27 1.20957e-05)
(1.21301e-05 1.62961e-05 -2.94428e-29 1.21354e-05 8.24035e-27 1.21318e-05)
(1.21703e-05 1.63882e-05 -3.06965e-28 1.21747e-05 3.77385e-27 1.21716e-05)
(1.22144e-05 1.64805e-05 2.83422e-29 1.22179e-05 2.45807e-28 1.22153e-05)
(1.2262e-05 1.65726e-05 2.9671e-28 1.22646e-05 1.77771e-28 1.22626e-05)
(1.23134e-05 1.66644e-05 -3.26293e-28 1.23149e-05 -1.75711e-28 1.23135e-05)
(1.23681e-05 1.67557e-05 1.34123e-29 1.23687e-05 -9.36408e-28 1.23678e-05)
(1.24262e-05 1.68462e-05 5.55091e-31 1.24259e-05 3.6808e-27 1.24255e-05)
(1.24876e-05 1.69356e-05 -2.6569e-32 1.24863e-05 -1.9921e-38 1.24865e-05)
(1.25523e-05 1.70238e-05 9.7434e-32 1.25499e-05 1.46112e-37 1.25508e-05)
(1.26206e-05 1.71106e-05 2.04954e-30 1.26172e-05 2.92249e-30 1.26187e-05)
(1.26923e-05 1.71961e-05 -1.44049e-29 1.26878e-05 4.15635e-28 1.26899e-05)
(1.27675e-05 1.72797e-05 -3.37428e-28 1.27619e-05 -5.75988e-28 1.27646e-05)
(1.28461e-05 1.73616e-05 -3.11016e-28 1.28394e-05 -9.42002e-28 1.28428e-05)
(1.29282e-05 1.74414e-05 7.49674e-30 1.29204e-05 7.89336e-28 1.29244e-05)
(1.30137e-05 1.75191e-05 4.53265e-30 1.30047e-05 -1.21559e-26 1.30094e-05)
(1.31023e-05 1.75941e-05 -8.33511e-29 1.30921e-05 -4.16641e-34 1.30976e-05)
(1.31944e-05 1.76665e-05 -2.64749e-27 1.31829e-05 -1.05772e-27 1.31891e-05)
(1.32899e-05 1.77359e-05 8.3008e-29 1.32772e-05 -1.34378e-27 1.32841e-05)
(1.33896e-05 1.78024e-05 2.69742e-32 1.33755e-05 2.11191e-26 1.33833e-05)
(1.34934e-05 1.78658e-05 -1.76311e-29 1.34779e-05 1.2884e-27 1.34865e-05)
(1.36011e-05 1.79263e-05 -6.71864e-28 1.35843e-05 -2.21821e-28 1.35936e-05)
(1.37128e-05 1.79836e-05 8.73325e-30 1.36946e-05 1.94692e-26 1.37048e-05)
(1.38287e-05 1.80376e-05 9.25482e-30 1.38092e-05 -1.85205e-26 1.38201e-05)
(1.39491e-05 1.80886e-05 -6.88932e-30 1.39282e-05 1.84415e-26 1.39399e-05)
(1.40737e-05 1.81365e-05 -3.1576e-28 1.40514e-05 -2.06632e-27 1.40639e-05)
(1.42026e-05 1.81813e-05 3.10816e-28 1.41788e-05 2.89827e-26 1.41922e-05)
(1.43358e-05 1.82229e-05 -1.1149e-29 1.43106e-05 8.19896e-31 1.43248e-05)
(1.44732e-05 1.82615e-05 -3.29181e-28 1.44467e-05 -5.7959e-29 1.44617e-05)
(1.46149e-05 1.8297e-05 -3.32853e-28 1.45871e-05 -6.25175e-29 1.46028e-05)
(1.47609e-05 1.83293e-05 3.48431e-28 1.47317e-05 -1.176e-27 1.47482e-05)
(1.49114e-05 1.83585e-05 -4.56391e-30 1.48809e-05 -1.74219e-26 1.48982e-05)
(1.50664e-05 1.83851e-05 2.25804e-33 1.50346e-05 -9.73726e-28 1.50526e-05)
(1.52257e-05 1.84088e-05 4.98527e-32 1.51927e-05 -1.35553e-26 1.52114e-05)
(1.53891e-05 1.84301e-05 -2.26967e-31 1.53549e-05 -1.24957e-26 1.53743e-05)
(1.55556e-05 1.84482e-05 -4.02237e-29 1.55202e-05 -7.70476e-30 1.55403e-05)
(1.57253e-05 1.8464e-05 -6.55381e-28 1.5689e-05 1.70341e-26 1.57096e-05)
(1.58972e-05 1.84765e-05 3.39942e-30 1.58599e-05 1.12297e-34 1.58811e-05)
(1.60717e-05 1.84866e-05 -1.81951e-29 1.60337e-05 -2.46549e-28 1.60553e-05)
(1.62468e-05 1.84934e-05 3.62596e-29 1.62081e-05 2.45987e-28 1.62301e-05)
(1.64222e-05 1.8497e-05 -1.80313e-29 1.6383e-05 -2.77612e-27 1.64053e-05)
(1.65969e-05 1.84975e-05 2.92532e-32 1.65575e-05 2.70525e-29 1.65799e-05)
(1.67692e-05 1.84942e-05 7.26588e-34 1.67298e-05 3.08504e-27 1.67522e-05)
(1.69379e-05 1.8487e-05 4.55681e-31 1.68987e-05 -5.72636e-27 1.6921e-05)
(1.71006e-05 1.84755e-05 -1.82098e-28 1.7062e-05 1.78193e-28 1.7084e-05)
(1.72547e-05 1.84582e-05 8.42424e-30 1.7217e-05 -6.85461e-29 1.72385e-05)
(1.73986e-05 1.84358e-05 7.44867e-31 1.73624e-05 -1.0938e-26 1.73832e-05)
(1.75254e-05 1.84034e-05 -3.44115e-28 1.74911e-05 -1.18216e-26 1.75108e-05)
(1.76353e-05 1.83616e-05 -1.76834e-29 1.76031e-05 1.2308e-26 1.76218e-05)
(1.77214e-05 1.83073e-05 -3.44544e-28 1.76921e-05 1.27468e-29 1.77091e-05)
(1.77822e-05 1.82385e-05 3.55545e-28 1.77558e-05 -6.0139e-27 1.77714e-05)
(1.78131e-05 1.81539e-05 6.81421e-28 1.77903e-05 5.4299e-27 1.78037e-05)
(1.78171e-05 1.80563e-05 2.14217e-30 1.77982e-05 -4.5156e-27 1.78097e-05)
(1.77727e-05 1.79254e-05 0 1.77569e-05 0 1.77662e-05)
(1.77387e-05 1.78101e-05 -5.18968e-35 1.77241e-05 -3.29258e-29 1.77335e-05)
(1.73404e-05 7.57129e-06 3.64935e-29 1.733e-05 -6.50269e-30 1.73334e-05)
(1.72053e-05 7.54056e-06 6.75849e-26 1.71976e-05 -7.52288e-28 1.72006e-05)
(1.70791e-05 7.51017e-06 1.51506e-27 1.70789e-05 8.25768e-27 1.70779e-05)
(1.6908e-05 7.46435e-06 -1.34596e-25 1.69166e-05 6.1558e-27 1.6912e-05)
(1.67279e-05 7.41148e-06 -1.21487e-27 1.67431e-05 3.68639e-26 1.67353e-05)
(1.65242e-05 7.34951e-06 2.05264e-27 1.65474e-05 1.82339e-28 1.6536e-05)
(1.63056e-05 7.27962e-06 2.54259e-25 1.6335e-05 -2.8193e-26 1.63208e-05)
(1.60751e-05 7.20387e-06 2.52019e-25 1.61108e-05 -3.28855e-26 1.60937e-05)
(1.58342e-05 7.1224e-06 -2.49379e-25 1.58752e-05 3.87427e-26 1.58558e-05)
(1.55897e-05 7.03755e-06 4.56596e-27 1.56351e-05 -9.81385e-26 1.56137e-05)
(1.53443e-05 6.9504e-06 2.41766e-25 1.53936e-05 -1.61485e-25 1.53705e-05)
(1.51015e-05 6.86203e-06 6.04486e-28 1.5154e-05 -3.05501e-30 1.51295e-05)
(1.4863e-05 6.77338e-06 2.39066e-25 1.49181e-05 -1.96035e-25 1.48925e-05)
(1.46304e-05 6.68507e-06 -1.2323e-26 1.46875e-05 -8.78714e-29 1.46611e-05)
(1.44056e-05 6.5979e-06 7.36128e-28 1.4464e-05 -1.52878e-25 1.44371e-05)
(1.41901e-05 6.51257e-06 6.28425e-27 1.42492e-05 -1.02774e-26 1.42221e-05)
(1.39851e-05 6.42961e-06 -2.56738e-28 1.40444e-05 5.45529e-27 1.40173e-05)
(1.37913e-05 6.34948e-06 -1.03881e-26 1.38503e-05 -1.95551e-25 1.38234e-05)
(1.36093e-05 6.27259e-06 -2.14304e-25 1.36677e-05 9.36828e-26 1.36412e-05)
(1.34397e-05 6.19915e-06 -7.37707e-27 1.3497e-05 -8.4921e-28 1.34711e-05)
(1.32825e-05 6.12938e-06 3.68754e-27 1.33385e-05 2.28603e-25 1.33132e-05)
(1.31375e-05 6.06336e-06 1.30755e-25 1.3192e-05 -7.42978e-26 1.31675e-05)
(1.30048e-05 6.0012e-06 -1.52895e-26 1.30575e-05 1.32124e-26 1.30339e-05)
(1.28837e-05 5.94274e-06 -5.24518e-27 1.29345e-05 -2.3606e-25 1.29118e-05)
(1.27742e-05 5.88822e-06 5.82108e-27 1.28231e-05 2.49381e-25 1.28013e-05)
(1.26756e-05 5.83729e-06 -2.81629e-27 1.27223e-05 -4.57148e-28 1.27016e-05)
(1.25876e-05 5.79009e-06 1.1369e-25 1.26321e-05 -6.0717e-26 1.26125e-05)
(1.25095e-05 5.74635e-06 9.90108e-26 1.25518e-05 -5.49626e-26 1.25331e-05)
(1.2441e-05 5.70604e-06 1.12693e-25 1.24811e-05 -6.18994e-26 1.24635e-05)
(1.23815e-05 5.66906e-06 -7.70212e-27 1.24194e-05 -1.23334e-25 1.24029e-05)
(1.23306e-05 5.63522e-06 5.19886e-26 1.23663e-05 -3.63754e-26 1.23507e-05)
(1.22878e-05 5.60441e-06 -4.25596e-27 1.23213e-05 8.10742e-27 1.23068e-05)
(1.22524e-05 5.57649e-06 1.39831e-27 1.22838e-05 4.52982e-27 1.22703e-05)
(1.22244e-05 5.55133e-06 -5.20327e-26 1.22537e-05 1.59099e-25 1.22411e-05)
(1.22029e-05 5.52883e-06 5.135e-28 1.22303e-05 -3.9387e-28 1.22186e-05)
(1.21879e-05 5.50873e-06 5.61617e-26 1.22133e-05 3.56908e-26 1.22025e-05)
(1.21791e-05 5.49107e-06 -5.53088e-26 1.22026e-05 3.67984e-26 1.21927e-05)
(1.21759e-05 5.47563e-06 1.40101e-27 1.21976e-05 -2.39701e-27 1.21885e-05)
(1.21781e-05 5.46243e-06 -1.33957e-27 1.2198e-05 -1.72983e-28 1.21897e-05)
(1.21855e-05 5.45119e-06 2.05623e-27 1.22037e-05 3.40229e-28 1.21962e-05)
(1.2198e-05 5.44193e-06 -2.9162e-26 1.22146e-05 1.37286e-26 1.22078e-05)
(1.22152e-05 5.43461e-06 3.14704e-27 1.22301e-05 -3.32143e-26 1.22241e-05)
(1.22367e-05 5.42924e-06 2.59317e-26 1.22501e-05 -1.49203e-26 1.22448e-05)
(1.22623e-05 5.42572e-06 -1.29499e-26 1.22742e-05 -2.38812e-26 1.22695e-05)
(1.22918e-05 5.42398e-06 1.22324e-26 1.23022e-05 -4.11307e-26 1.22982e-05)
(1.23252e-05 5.42394e-06 1.35367e-26 1.23341e-05 9.43344e-27 1.23308e-05)
(1.23624e-05 5.42557e-06 6.59998e-27 1.23698e-05 -2.86094e-27 1.23672e-05)
(1.24034e-05 5.4289e-06 1.57719e-28 1.24093e-05 -2.04194e-28 1.24073e-05)
(1.24479e-05 5.43385e-06 -3.18682e-28 1.24524e-05 -2.23669e-28 1.2451e-05)
(1.2496e-05 5.44042e-06 2.86719e-28 1.24991e-05 -4.96657e-28 1.24983e-05)
(1.25476e-05 5.44865e-06 -1.52918e-27 1.25492e-05 5.57131e-28 1.2549e-05)
(1.26026e-05 5.45851e-06 6.8429e-27 1.26026e-05 -2.8741e-27 1.26032e-05)
(1.26608e-05 5.47001e-06 -1.76529e-28 1.26594e-05 -3.3045e-32 1.26606e-05)
(1.27225e-05 5.4832e-06 1.50521e-31 1.27194e-05 1.34005e-26 1.27213e-05)
(1.27876e-05 5.49813e-06 1.98869e-29 1.27829e-05 8.80629e-28 1.27855e-05)
(1.28561e-05 5.51486e-06 7.59461e-28 1.28498e-05 7.10194e-29 1.28531e-05)
(1.29281e-05 5.53335e-06 -4.89221e-28 1.29201e-05 1.98169e-27 1.29242e-05)
(1.30036e-05 5.55364e-06 -1.17425e-27 1.29938e-05 -2.98513e-27 1.29986e-05)
(1.30825e-05 5.57583e-06 1.00772e-27 1.3071e-05 1.73374e-27 1.30765e-05)
(1.31648e-05 5.59997e-06 -2.82037e-26 1.31515e-05 8.79129e-27 1.31578e-05)
(1.32503e-05 5.6261e-06 6.45124e-28 1.32352e-05 2.96572e-27 1.32423e-05)
(1.33393e-05 5.6543e-06 2.64138e-27 1.33222e-05 -4.45451e-26 1.33301e-05)
(1.34317e-05 5.68455e-06 -2.25403e-27 1.34126e-05 -4.16926e-26 1.34214e-05)
(1.3528e-05 5.71678e-06 5.75394e-26 1.35069e-05 -2.06388e-26 1.35166e-05)
(1.36283e-05 5.75119e-06 2.21247e-27 1.36051e-05 -3.80356e-26 1.36156e-05)
(1.37323e-05 5.78779e-06 1.5575e-27 1.3707e-05 7.35636e-26 1.37185e-05)
(1.38401e-05 5.82661e-06 6.06907e-26 1.38125e-05 -1.31769e-26 1.3825e-05)
(1.39518e-05 5.86768e-06 -6.19277e-26 1.39221e-05 1.47758e-26 1.39355e-05)
(1.40677e-05 5.91107e-06 6.63259e-26 1.40357e-05 -1.78966e-26 1.40501e-05)
(1.41874e-05 5.95682e-06 -5.69893e-27 1.41531e-05 3.95606e-27 1.41685e-05)
(1.43111e-05 6.00496e-06 1.18997e-25 1.42745e-05 -2.87981e-26 1.42909e-05)
(1.44385e-05 6.05552e-06 -1.33888e-27 1.43996e-05 5.80557e-26 1.4417e-05)
(1.45699e-05 6.10847e-06 3.6087e-28 1.45286e-05 -2.84994e-27 1.45471e-05)
(1.4705e-05 6.16377e-06 3.02704e-28 1.46615e-05 9.58004e-26 1.46809e-05)
(1.48437e-05 6.22144e-06 -8.00735e-27 1.47978e-05 -2.83468e-27 1.48183e-05)
(1.49862e-05 6.28145e-06 -1.16154e-25 1.4938e-05 1.91815e-26 1.49595e-05)
(1.51324e-05 6.34369e-06 -6.73521e-27 1.50818e-05 -4.09798e-27 1.51044e-05)
(1.52819e-05 6.40814e-06 -1.18257e-25 1.52292e-05 -4.22392e-26 1.52527e-05)
(1.54346e-05 6.47471e-06 -1.24757e-25 1.53797e-05 1.12779e-26 1.54042e-05)
(1.55893e-05 6.54329e-06 1.38858e-27 1.55323e-05 2.45741e-27 1.55577e-05)
(1.57463e-05 6.61388e-06 2.54968e-25 1.56874e-05 1.90346e-26 1.57137e-05)
(1.59045e-05 6.68586e-06 -8.01635e-28 1.58437e-05 -1.94659e-27 1.58708e-05)
(1.60637e-05 6.7593e-06 -7.1653e-27 1.60014e-05 1.97708e-26 1.60292e-05)
(1.62226e-05 6.83362e-06 6.98383e-27 1.61589e-05 1.26255e-26 1.61873e-05)
(1.63803e-05 6.90849e-06 -2.61375e-25 1.63155e-05 2.82846e-27 1.63444e-05)
(1.65359e-05 6.98339e-06 -3.38921e-27 1.64703e-05 -4.89387e-29 1.64996e-05)
(1.66877e-05 7.05776e-06 -2.61569e-25 1.66218e-05 -2.61263e-27 1.66512e-05)
(1.68344e-05 7.13086e-06 2.70212e-25 1.67686e-05 5.0424e-27 1.6798e-05)
(1.69739e-05 7.20196e-06 -5.07542e-27 1.69089e-05 -1.62761e-26 1.69379e-05)
(1.71039e-05 7.27e-06 1.3231e-27 1.70402e-05 1.34802e-28 1.70686e-05)
(1.72227e-05 7.33437e-06 2.70801e-25 1.71613e-05 -1.22972e-26 1.71887e-05)
(1.73253e-05 7.39332e-06 2.74123e-25 1.72667e-05 1.10442e-26 1.72928e-05)
(1.74106e-05 7.44603e-06 -2.73248e-25 1.73556e-05 -1.18296e-26 1.738e-05)
(1.74744e-05 7.49147e-06 -4.39231e-28 1.74239e-05 -2.51909e-26 1.74462e-05)
(1.75142e-05 7.52795e-06 1.41273e-25 1.74686e-05 2.98266e-26 1.74888e-05)
(1.75284e-05 7.5556e-06 -1.44109e-25 1.74883e-05 -5.17538e-27 1.75057e-05)
(1.75163e-05 7.57329e-06 1.39275e-25 1.7483e-05 4.56491e-27 1.74975e-05)
(1.74693e-05 7.5789e-06 2.01247e-28 1.74399e-05 -3.15785e-29 1.74522e-05)
(1.74187e-05 7.57786e-06 2.13707e-27 1.7394e-05 3.23432e-29 1.74049e-05)
(1.71522e-05 7.71579e-06 -9.67922e-26 1.71274e-05 2.89289e-29 1.71392e-05)
(1.70162e-05 7.67654e-06 -7.59206e-26 1.69984e-05 -1.10629e-27 1.70079e-05)
(1.68791e-05 7.63284e-06 3.8052e-25 1.68741e-05 -8.36848e-27 1.68764e-05)
(1.67102e-05 7.58039e-06 1.53843e-25 1.67208e-05 6.4424e-26 1.67158e-05)
(1.65307e-05 7.51794e-06 7.46525e-25 1.65534e-05 -3.69074e-26 1.65422e-05)
(1.63343e-05 7.45006e-06 -3.25287e-27 1.63711e-05 1.01848e-25 1.6353e-05)
(1.61257e-05 7.37396e-06 -2.94757e-25 1.61739e-05 -4.18564e-26 1.61501e-05)
(1.59083e-05 7.29364e-06 -2.80085e-25 1.59679e-05 -5.18102e-26 1.59384e-05)
(1.56838e-05 7.20903e-06 2.76111e-25 1.57532e-05 5.99294e-26 1.57188e-05)
(1.54574e-05 7.12187e-06 -7.06616e-25 1.55353e-05 9.47325e-26 1.54966e-05)
(1.52317e-05 7.03366e-06 -9.5663e-25 1.53172e-05 2.83606e-26 1.52747e-05)
(1.50095e-05 6.94519e-06 -1.87738e-27 1.51015e-05 1.72159e-29 1.50558e-05)
(1.47924e-05 6.85732e-06 -9.33091e-25 1.48898e-05 3.14733e-26 1.48413e-05)
(1.45814e-05 6.77051e-06 2.52794e-27 1.46831e-05 4.4517e-27 1.46325e-05)
(1.43782e-05 6.68539e-06 -6.29484e-25 1.4483e-05 1.50379e-25 1.44308e-05)
(1.41838e-05 6.60253e-06 -2.81111e-26 1.42906e-05 -4.49138e-27 1.42374e-05)
(1.39992e-05 6.52241e-06 8.7412e-27 1.41071e-05 -3.72833e-25 1.40533e-05)
(1.38249e-05 6.44536e-06 -6.34373e-25 1.3933e-05 -2.12918e-25 1.38791e-05)
(1.36615e-05 6.37168e-06 2.74205e-25 1.3769e-05 1.51325e-25 1.37153e-05)
(1.35091e-05 6.30152e-06 6.39669e-27 1.36154e-05 -4.52669e-27 1.35623e-05)
(1.3368e-05 6.23513e-06 6.31131e-25 1.34724e-05 -1.97406e-25 1.34202e-05)
(1.32378e-05 6.17239e-06 -1.98602e-25 1.33399e-05 -1.15294e-25 1.32889e-05)
(1.31187e-05 6.11352e-06 2.58626e-26 1.3218e-05 2.56218e-26 1.31683e-05)
(1.30101e-05 6.05828e-06 -5.72975e-25 1.31062e-05 2.05557e-25 1.30581e-05)
(1.29118e-05 6.00683e-06 6.101e-25 1.30046e-05 2.73017e-25 1.29582e-05)
(1.28233e-05 5.95893e-06 -1.76893e-26 1.29126e-05 2.09749e-26 1.28679e-05)
(1.27445e-05 5.91465e-06 -1.34768e-25 1.283e-05 -3.37744e-25 1.27872e-05)
(1.26745e-05 5.87372e-06 -1.14403e-25 1.27562e-05 -1.01758e-25 1.27153e-05)
(1.26133e-05 5.83603e-06 -1.3305e-25 1.2691e-05 1.62721e-25 1.26521e-05)
(1.25603e-05 5.80161e-06 -2.64505e-25 1.26341e-05 1.24524e-25 1.25971e-05)
(1.2515e-05 5.77024e-06 -6.52146e-26 1.25848e-05 2.15107e-25 1.25498e-05)
(1.24771e-05 5.74179e-06 1.85279e-26 1.25431e-05 2.76973e-25 1.251e-05)
(1.24461e-05 5.71616e-06 1.64098e-26 1.25083e-05 6.38453e-27 1.24771e-05)
(1.24217e-05 5.6932e-06 3.27045e-25 1.24802e-05 -7.4018e-26 1.24509e-05)
(1.24035e-05 5.67284e-06 -7.5327e-27 1.24583e-05 2.77264e-27 1.24308e-05)
(1.23912e-05 5.65485e-06 7.75784e-26 1.24425e-05 -1.14184e-25 1.24167e-05)
(1.23846e-05 5.63918e-06 6.99169e-26 1.24324e-05 1.88615e-25 1.24084e-05)
(1.23832e-05 5.62575e-06 -1.02954e-26 1.24277e-05 -1.38949e-25 1.24053e-05)
(1.23869e-05 5.61447e-06 2.50968e-28 1.24281e-05 -1.36728e-25 1.24074e-05)
(1.23955e-05 5.60522e-06 9.21434e-28 1.24335e-05 -2.67311e-27 1.24144e-05)
(1.24087e-05 5.59791e-06 2.62216e-26 1.24437e-05 2.18154e-26 1.24261e-05)
(1.24265e-05 5.59257e-06 -7.15038e-26 1.24585e-05 3.26336e-26 1.24424e-05)
(1.24483e-05 5.5891e-06 -2.95e-26 1.24774e-05 -2.11102e-26 1.24628e-05)
(1.24742e-05 5.58757e-06 -5.30267e-26 1.25005e-05 3.60998e-26 1.24873e-05)
(1.25039e-05 5.58789e-06 -8.43238e-26 1.25273e-05 2.11929e-26 1.25155e-05)
(1.25374e-05 5.5899e-06 2.29709e-26 1.25581e-05 -2.68688e-26 1.25477e-05)
(1.25746e-05 5.59367e-06 -7.56019e-27 1.25925e-05 -3.63061e-26 1.25835e-05)
(1.26155e-05 5.59913e-06 -2.64938e-28 1.26306e-05 -1.78929e-26 1.2623e-05)
(1.26599e-05 5.60632e-06 4.64433e-28 1.26722e-05 -7.07763e-27 1.2666e-05)
(1.27077e-05 5.6152e-06 -2.18582e-27 1.27173e-05 1.52466e-27 1.27124e-05)
(1.2759e-05 5.62575e-06 1.15318e-27 1.27657e-05 8.94171e-27 1.27623e-05)
(1.28137e-05 5.63807e-06 -6.74292e-27 1.28175e-05 -2.01586e-26 1.28156e-05)
(1.28716e-05 5.65212e-06 9.27731e-28 1.28725e-05 4.14176e-31 1.2872e-05)
(1.2933e-05 5.66782e-06 3.38596e-26 1.29309e-05 -1.36763e-26 1.29319e-05)
(1.29978e-05 5.68545e-06 1.31214e-27 1.29925e-05 1.01036e-27 1.29951e-05)
(1.3066e-05 5.70491e-06 4.40045e-29 1.30575e-05 5.32587e-26 1.30617e-05)
(1.31376e-05 5.72619e-06 3.96663e-27 1.31259e-05 2.18904e-27 1.31317e-05)
(1.32126e-05 5.74944e-06 -8.31942e-27 1.31976e-05 3.58001e-27 1.32051e-05)
(1.32912e-05 5.7746e-06 4.93647e-27 1.32728e-05 -4.04219e-27 1.3282e-05)
(1.33732e-05 5.80186e-06 2.57126e-26 1.33512e-05 1.659e-26 1.33622e-05)
(1.34584e-05 5.83115e-06 5.26624e-27 1.34328e-05 3.66146e-28 1.34456e-05)
(1.35471e-05 5.86258e-06 -1.55357e-25 1.35178e-05 3.88943e-26 1.35325e-05)
(1.36392e-05 5.89611e-06 -1.39695e-25 1.36061e-05 -4.55893e-26 1.36227e-05)
(1.37351e-05 5.93177e-06 -6.9342e-26 1.36979e-05 -1.2384e-25 1.37166e-05)
(1.38346e-05 5.96957e-06 -1.37302e-25 1.37934e-05 1.23228e-25 1.38141e-05)
(1.39379e-05 6.00962e-06 2.88165e-25 1.38926e-05 -7.55669e-26 1.39153e-05)
(1.40448e-05 6.05197e-06 -5.6353e-26 1.39952e-05 -2.1648e-26 1.40201e-05)
(1.41553e-05 6.09656e-06 6.22396e-26 1.41015e-05 1.6869e-25 1.41285e-05)
(1.42697e-05 6.14349e-06 -8.13512e-26 1.42115e-05 1.09722e-25 1.42408e-05)
(1.43876e-05 6.19273e-06 1.70644e-26 1.43251e-05 2.83018e-27 1.43565e-05)
(1.45092e-05 6.24436e-06 -1.42638e-25 1.44422e-05 7.91682e-26 1.44758e-05)
(1.46342e-05 6.2983e-06 3.36899e-25 1.45628e-05 -5.58918e-26 1.45987e-05)
(1.47627e-05 6.35458e-06 -1.63034e-26 1.46869e-05 6.25169e-27 1.4725e-05)
(1.48945e-05 6.41308e-06 6.63265e-25 1.48142e-05 1.00134e-26 1.48545e-05)
(1.50294e-05 6.47384e-06 -2.26032e-26 1.49446e-05 -1.71076e-25 1.49872e-05)
(1.51672e-05 6.5367e-06 1.51151e-25 1.50781e-05 2.00391e-26 1.51229e-05)
(1.53081e-05 6.60162e-06 -4.12411e-26 1.52147e-05 1.355e-27 1.52616e-05)
(1.54514e-05 6.66841e-06 -4.9438e-25 1.53538e-05 7.89154e-26 1.54028e-05)
(1.55969e-05 6.73711e-06 1.38514e-25 1.54953e-05 1.74678e-26 1.55464e-05)
(1.57438e-05 6.80736e-06 3.93228e-26 1.56383e-05 2.04124e-28 1.56913e-05)
(1.58918e-05 6.87908e-06 4.10141e-25 1.57827e-05 -1.29813e-25 1.58375e-05)
(1.604e-05 6.9518e-06 -3.90327e-26 1.59276e-05 -1.39612e-28 1.5984e-05)
(1.61879e-05 7.02526e-06 7.02082e-25 1.60725e-05 -1.93109e-26 1.61304e-05)
(1.63342e-05 7.0991e-06 7.07568e-25 1.62164e-05 -1.33146e-26 1.62756e-05)
(1.6478e-05 7.1726e-06 2.88357e-25 1.63582e-05 3.66391e-27 1.64183e-05)
(1.66182e-05 7.24537e-06 1.00793e-26 1.64971e-05 -5.56249e-29 1.65579e-05)
(1.67532e-05 7.31665e-06 2.84742e-25 1.66316e-05 -4.68638e-27 1.66926e-05)
(1.68816e-05 7.3857e-06 -2.98236e-25 1.67603e-05 8.48895e-27 1.68211e-05)
(1.70014e-05 7.45179e-06 7.48763e-25 1.68816e-05 1.41374e-26 1.69416e-05)
(1.71104e-05 7.51379e-06 -5.05434e-27 1.69932e-05 1.15568e-28 1.7052e-05)
(1.7207e-05 7.571e-06 4.46098e-25 1.70939e-05 8.42557e-26 1.71506e-05)
(1.72873e-05 7.62225e-06 -3.02799e-25 1.71793e-05 1.7575e-26 1.72334e-05)
(1.73495e-05 7.66584e-06 3.08493e-25 1.72479e-05 -1.80629e-26 1.72988e-05)
(1.73912e-05 7.70206e-06 7.63062e-25 1.72974e-05 7.75296e-26 1.73443e-05)
(1.74093e-05 7.72797e-06 -9.20452e-25 1.73243e-05 -1.50138e-26 1.73669e-05)
(1.7404e-05 7.74545e-06 1.61715e-25 1.73284e-05 -7.53485e-27 1.73661e-05)
(1.73726e-05 7.75147e-06 -1.64222e-25 1.73085e-05 6.50869e-27 1.73407e-05)
(1.73143e-05 7.74785e-06 1.15825e-27 1.72577e-05 -2.25243e-30 1.72856e-05)
(1.72428e-05 7.7302e-06 -2.45342e-27 1.71965e-05 4.91636e-29 1.72203e-05)
(1.69861e-05 7.77687e-06 1.08619e-25 1.69488e-05 3.08148e-29 1.69668e-05)
(1.68412e-05 7.72768e-06 -4.15999e-28 1.68177e-05 -5.95345e-27 1.68301e-05)
(1.66903e-05 7.67081e-06 -4.2591e-25 1.66844e-05 2.41165e-26 1.66871e-05)
(1.65163e-05 7.61058e-06 2.00162e-24 1.65332e-05 -5.65796e-27 1.65251e-05)
(1.63321e-05 7.53899e-06 -8.50536e-25 1.63667e-05 -5.2118e-26 1.63495e-05)
(1.61366e-05 7.46582e-06 1.94374e-24 1.61913e-05 1.14789e-25 1.61641e-05)
(1.59315e-05 7.38448e-06 -4.99925e-27 1.60032e-05 3.91826e-26 1.59675e-05)
(1.57208e-05 7.30011e-06 -2.65154e-29 1.58089e-05 5.00223e-26 1.57649e-05)
(1.55061e-05 7.21264e-06 5.26889e-27 1.56086e-05 -5.85445e-26 1.55575e-05)
(1.52916e-05 7.12422e-06 7.86015e-25 1.54067e-05 1.41679e-25 1.53492e-05)
(1.50799e-05 7.03586e-06 7.62186e-25 1.52062e-05 7.13322e-25 1.51431e-05)
(1.48733e-05 6.94851e-06 1.38684e-27 1.50094e-05 -1.65485e-29 1.49413e-05)
(1.4673e-05 6.86283e-06 7.44516e-25 1.48173e-05 2.86779e-25 1.47451e-05)
(1.448e-05 6.77899e-06 1.28848e-27 1.46307e-05 1.02657e-26 1.45553e-05)
(1.42952e-05 6.69765e-06 7.22465e-25 1.44507e-05 2.11456e-25 1.43729e-05)
(1.41195e-05 6.61904e-06 -2.86303e-26 1.42783e-05 -7.1372e-25 1.41988e-05)
(1.39536e-05 6.54366e-06 -1.66655e-24 1.41142e-05 3.57358e-25 1.40338e-05)
(1.37978e-05 6.47162e-06 -9.19967e-25 1.39589e-05 6.39758e-25 1.38783e-05)
(1.36524e-05 6.40312e-06 5.61037e-26 1.38128e-05 7.09056e-25 1.37324e-05)
(1.35174e-05 6.33828e-06 -6.00731e-26 1.36761e-05 -1.0347e-27 1.35966e-05)
(1.33929e-05 6.27727e-06 -6.67578e-25 1.3549e-05 -3.58826e-25 1.34708e-05)
(1.32787e-05 6.21989e-06 -3.12618e-26 1.34314e-05 1.10195e-25 1.33549e-05)
(1.31745e-05 6.16636e-06 5.92105e-26 1.33233e-05 1.23001e-26 1.32487e-05)
(1.30801e-05 6.11632e-06 6.16751e-25 1.32243e-05 3.38576e-25 1.3152e-05)
(1.29951e-05 6.06998e-06 8.63283e-25 1.31344e-05 -8.21075e-25 1.30645e-05)
(1.2919e-05 6.02703e-06 1.51918e-26 1.3053e-05 -1.47459e-26 1.29858e-05)
(1.28516e-05 5.98751e-06 -7.05978e-25 1.29801e-05 8.83396e-25 1.29157e-05)
(1.27923e-05 5.95122e-06 -1.3265e-26 1.29151e-05 8.32498e-26 1.28535e-05)
(1.27409e-05 5.918e-06 7.462e-25 1.28579e-05 -1.48844e-25 1.27992e-05)
(1.26969e-05 5.88786e-06 3.09624e-25 1.2808e-05 1.59467e-25 1.27523e-05)
(1.266e-05 5.86059e-06 7.16762e-25 1.27653e-05 -1.78893e-25 1.27125e-05)
(1.26298e-05 5.83612e-06 7.11127e-25 1.27293e-05 2.97497e-25 1.26793e-05)
(1.26058e-05 5.81427e-06 -3.78148e-27 1.26996e-05 -4.52739e-27 1.26526e-05)
(1.25879e-05 5.79502e-06 -3.05574e-25 1.26761e-05 -2.30896e-25 1.26318e-05)
(1.25755e-05 5.77812e-06 4.35599e-27 1.26583e-05 -2.83235e-25 1.26168e-05)
(1.25686e-05 5.76357e-06 -1.4341e-25 1.26461e-05 -5.50175e-26 1.26072e-05)
(1.25668e-05 5.75119e-06 3.5411e-25 1.26391e-05 -1.7381e-25 1.26028e-05)
(1.25699e-05 5.74097e-06 -3.74584e-25 1.26372e-05 1.23652e-25 1.26034e-05)
(1.25777e-05 5.73281e-06 -3.48821e-25 1.264e-05 1.35302e-25 1.26087e-05)
(1.25899e-05 5.72662e-06 8.24292e-27 1.26476e-05 -1.94815e-29 1.26186e-05)
(1.26065e-05 5.72232e-06 -8.00194e-27 1.26596e-05 -2.23144e-26 1.26329e-05)
(1.26273e-05 5.71989e-06 8.63233e-26 1.26759e-05 5.17525e-26 1.26515e-05)
(1.2652e-05 5.7194e-06 4.5776e-27 1.26962e-05 1.56656e-25 1.2674e-05)
(1.26806e-05 5.72077e-06 6.72811e-26 1.27204e-05 -3.80837e-26 1.27004e-05)
(1.27127e-05 5.72391e-06 7.80479e-26 1.27484e-05 5.99604e-26 1.27305e-05)
(1.27486e-05 5.72881e-06 -4.45373e-26 1.278e-05 -1.2268e-26 1.27642e-05)
(1.2788e-05 5.73547e-06 -8.44822e-26 1.28153e-05 3.60988e-26 1.28015e-05)
(1.28309e-05 5.7438e-06 -4.74201e-26 1.2854e-05 -1.89093e-26 1.28423e-05)
(1.28772e-05 5.75385e-06 -2.00035e-26 1.28961e-05 2.30948e-26 1.28866e-05)
(1.29269e-05 5.76562e-06 6.13297e-27 1.29416e-05 4.44952e-28 1.29342e-05)
(1.298e-05 5.77916e-06 2.15842e-26 1.29904e-05 7.70341e-27 1.29852e-05)
(1.30364e-05 5.79446e-06 -4.5844e-26 1.30424e-05 4.89739e-26 1.30394e-05)
(1.30961e-05 5.81156e-06 -1.09705e-29 1.30977e-05 3.2014e-26 1.30968e-05)
(1.3159e-05 5.83035e-06 -4.12755e-26 1.31561e-05 -7.97446e-26 1.31575e-05)
(1.32253e-05 5.85097e-06 6.8789e-27 1.32176e-05 5.68045e-26 1.32215e-05)
(1.3295e-05 5.87349e-06 1.787e-25 1.32826e-05 -1.1101e-25 1.32888e-05)
(1.3368e-05 5.89787e-06 2.25998e-27 1.33508e-05 -1.05339e-25 1.33594e-05)
(1.34445e-05 5.92425e-06 1.04854e-26 1.34222e-05 1.08004e-27 1.34333e-05)
(1.35243e-05 5.95254e-06 -1.10022e-26 1.34969e-05 8.38151e-28 1.35106e-05)
(1.36075e-05 5.98296e-06 2.12752e-28 1.35747e-05 8.1319e-26 1.35912e-05)
(1.3694e-05 6.01548e-06 2.8157e-27 1.36558e-05 5.36981e-27 1.3675e-05)
(1.37839e-05 6.05011e-06 1.57719e-25 1.374e-05 5.90866e-26 1.3762e-05)
(1.38771e-05 6.08681e-06 -2.16957e-25 1.38275e-05 -4.25922e-26 1.38524e-05)
(1.39739e-05 6.12567e-06 -4.05963e-25 1.39183e-05 1.09496e-25 1.39462e-05)
(1.40742e-05 6.16657e-06 5.71356e-25 1.40125e-05 1.4583e-25 1.40435e-05)
(1.4178e-05 6.20975e-06 -3.58352e-25 1.41101e-05 -1.01517e-25 1.41441e-05)
(1.42851e-05 6.25514e-06 3.60649e-26 1.42109e-05 -1.32688e-25 1.42482e-05)
(1.43957e-05 6.3027e-06 7.94323e-25 1.43151e-05 -1.5546e-25 1.43556e-05)
(1.45097e-05 6.35248e-06 7.84113e-25 1.44227e-05 1.76954e-25 1.44664e-05)
(1.4627e-05 6.40446e-06 -9.28064e-28 1.45335e-05 -1.30558e-26 1.45805e-05)
(1.47475e-05 6.45867e-06 8.0154e-25 1.46474e-05 -5.43592e-26 1.46977e-05)
(1.4871e-05 6.51498e-06 -3.97677e-25 1.47643e-05 -3.15045e-25 1.48179e-05)
(1.49975e-05 6.57349e-06 5.08533e-26 1.48842e-05 -1.82774e-27 1.49411e-05)
(1.51266e-05 6.63397e-06 1.16895e-25 1.50068e-05 -2.06762e-26 1.5067e-05)
(1.52583e-05 6.69644e-06 -1.66924e-24 1.51319e-05 1.6688e-25 1.51954e-05)
(1.53922e-05 6.76058e-06 -3.93838e-26 1.52595e-05 -2.79744e-26 1.53261e-05)
(1.55282e-05 6.82651e-06 3.12049e-27 1.53892e-05 -1.28592e-25 1.5459e-05)
(1.56659e-05 6.89383e-06 7.77185e-25 1.55207e-05 4.88135e-26 1.55936e-05)
(1.58047e-05 6.96269e-06 -3.63537e-27 1.56537e-05 -2.28414e-26 1.57295e-05)
(1.59439e-05 7.03243e-06 -6.03486e-27 1.57873e-05 2.94484e-27 1.58659e-05)
(1.60832e-05 7.10314e-06 -2.528e-24 1.59214e-05 4.79421e-26 1.60026e-05)
(1.62213e-05 7.17417e-06 4.78039e-27 1.60549e-05 2.59848e-27 1.61384e-05)
(1.63578e-05 7.2452e-06 -7.69881e-25 1.61873e-05 -2.62979e-26 1.62729e-05)
(1.64915e-05 7.31584e-06 -7.76999e-25 1.63176e-05 -1.62746e-26 1.64049e-05)
(1.66212e-05 7.38524e-06 6.87029e-28 1.64446e-05 -3.93648e-27 1.65332e-05)
(1.67456e-05 7.45306e-06 2.08046e-30 1.65676e-05 2.11476e-27 1.6657e-05)
(1.68634e-05 7.51845e-06 -2.44532e-29 1.66849e-05 -2.23057e-26 1.67745e-05)
(1.69729e-05 7.58057e-06 8.65015e-28 1.67954e-05 -8.00403e-27 1.68845e-05)
(1.70724e-05 7.63883e-06 -8.23339e-25 1.68975e-05 -4.46913e-26 1.69853e-05)
(1.71599e-05 7.69205e-06 2.53526e-27 1.69891e-05 -1.76193e-28 1.70748e-05)
(1.72336e-05 7.73952e-06 -2.81004e-24 1.7069e-05 7.31319e-26 1.71516e-05)
(1.72907e-05 7.78056e-06 -1.05952e-26 1.71339e-05 8.99259e-26 1.72126e-05)
(1.73288e-05 7.8128e-06 3.94452e-27 1.71818e-05 1.71893e-26 1.72556e-05)
(1.7347e-05 7.83764e-06 -2.88634e-24 1.72113e-05 -1.22896e-25 1.72793e-05)
(1.73414e-05 7.85118e-06 8.77585e-25 1.72189e-05 -4.27786e-26 1.72805e-05)