/*--------------------------------*- C++ -*----------------------------------*\
| =========                 |                                                 |
| \\      /  F ield         | OpenFOAM: The Open Source CFD Toolbox           |
|  \\    /   O peration     | Version:  2306                                  |
|   \\  /    A nd           | Website:  www.openfoam.com                      |
|    \\/     M anipulation  |                                                 |
\*---------------------------------------------------------------------------*/
// * * * * * * * * * * * * * * * * * * * * * * * * * * * * * * * * * * * * * //
FoamFile
{
    version         2;
    format          ascii;
    class           volSymmTensorField;
    location        "0";
    object          S;
}

dimensions      [ 0 0 -1 0 0 0 0 ];

internalField   nonuniform List<symmTensor> 
14751
(
(-5.06143e-05 -0.609078 0 7.7429e-05 0 0)
(-1.94092e-05 -0.609685 -4.50651e-27 0.00011666 -2.6458e-23 0)
(3.64049e-05 -0.611128 -1.13832e-24 -2.27723e-05 -2.89024e-24 1.75494e-48)
(0.000124734 -0.609566 3.17761e-24 -0.000105142 2.21023e-22 6.81255e-47)
(0.000179411 -0.607789 -4.99706e-23 -0.000198587 -3.29454e-24 -5.8861e-46)
(0.000255008 -0.604122 2.52152e-23 -0.000292625 2.10472e-24 -1.31091e-46)
(0.000308468 -0.599512 6.65711e-26 -0.000365465 -1.01191e-21 0)
(0.000364091 -0.593774 2.22343e-23 -0.000442493 -1.2484e-21 9.35431e-44)
(0.000408425 -0.587029 -7.97846e-25 -0.000501488 1.44851e-21 -1.83691e-49)
(0.000443565 -0.579555 4.19964e-26 -0.000553101 -1.32215e-24 -5.89967e-48)
(0.000472193 -0.571387 -2.12797e-23 -0.000594854 -1.88454e-21 -1.41202e-43)
(0.000493366 -0.562717 3.83679e-25 -0.000627819 7.67486e-31 0)
(0.000508725 -0.553628 2.57031e-25 -0.000652888 -2.31222e-21 0)
(0.000517249 -0.544262 1.05914e-23 -0.000668766 1.19155e-22 -4.4724e-45)
(0.000519787 -0.53474 9.63086e-24 -0.000677114 8.16117e-24 -2.97025e-46)
(0.000516859 -0.52517 -2.67882e-25 -0.000677787 -8.41229e-23 0)
(0.000509206 -0.515656 0 -0.000672536 0 0)
(0.000497705 -0.506277 1.65307e-25 -0.000661557 9.71237e-23 0)
(0.000482717 -0.497109 4.65696e-24 -0.000646023 3.05403e-21 -5.72095e-44)
(0.000465351 -0.488213 -1.76396e-25 -0.000626677 2.06232e-22 0)
(0.00044615 -0.479625 -3.07347e-25 -0.000605054 6.31693e-24 -2.90955e-48)
(0.000425633 -0.471388 -1.96825e-24 -0.000580553 -2.11973e-21 -1.9851e-44)
(0.000404395 -0.463517 7.89007e-26 -0.000555688 2.12595e-22 0)
(0.000382338 -0.456031 1.39674e-29 -0.000528351 1.10137e-22 0)
(0.00036042 -0.448949 -1.20229e-26 -0.000502016 -1.08983e-22 0)
(0.000338497 -0.442253 -9.29208e-26 -0.000474347 1.11232e-22 3.4935e-48)
(0.000316986 -0.435965 2.46501e-24 -0.000447796 -1.88786e-21 1.76752e-44)
(0.00029593 -0.430054 -3.30696e-25 -0.000420968 -1.67058e-21 3.4939e-48)
(0.000275183 -0.424538 -3.40593e-28 -0.000394733 -2.00418e-21 0)
(0.000255483 -0.419389 -2.82525e-25 -0.000369543 1.10303e-22 -2.93784e-48)
(0.00023646 -0.414599 -1.53416e-24 -0.000345036 -8.86095e-22 -8.29662e-45)
(0.000218253 -0.410153 1.90462e-24 -0.00032153 5.61167e-23 -5.25404e-46)
(0.000200907 -0.406036 9.84389e-26 -0.000298966 -5.44289e-23 -1.54893e-48)
(0.000184465 -0.402232 1.73685e-24 -0.000277389 8.69209e-22 -8.13967e-45)
(0.000168705 -0.398726 -9.28596e-25 -0.000256721 5.33578e-23 2.50603e-46)
(0.000153692 -0.395499 -6.41211e-27 -0.000236986 -9.58568e-22 -6.96994e-49)
(0.000139423 -0.39254 1.48669e-24 -0.00021814 8.69211e-22 -1.20229e-47)
(0.000126113 -0.389834 2.92072e-23 -0.000200366 4.43644e-23 -6.6473e-45)
(0.000113204 -0.38737 -1.53313e-24 -0.000183079 2.55448e-23 1.19751e-47)
(0.000100887 -0.38513 3.06116e-27 -0.00016683 -5.07058e-23 0)
(8.9216e-05 -0.383101 -1.88323e-27 -0.000151139 4.49993e-22 0)
(7.83545e-05 -0.381284 6.7639e-29 -0.000136338 -2.47249e-23 0)
(6.82408e-05 -0.379669 1.02609e-27 -0.000122478 -3.87927e-22 0)
(5.83386e-05 -0.37825 -3.39712e-25 -0.000108863 1.78949e-22 0)
(4.88719e-05 -0.377017 -7.07348e-24 -9.57624e-05 -1.68421e-22 -6.31054e-45)
(3.94044e-05 -0.375964 6.79269e-25 -8.27375e-05 -1.90112e-22 6.84404e-49)
(3.01645e-05 -0.375083 7.02562e-24 -6.98651e-05 -8.63735e-23 3.236e-45)
(2.11027e-05 -0.374373 -6.43824e-25 -5.72859e-05 -5.58379e-24 0)
(1.21356e-05 -0.37383 -6.69291e-24 -4.47029e-05 -4.00999e-24 -1.50218e-46)
(3.2561e-06 -0.373453 7.31229e-24 -3.22074e-05 3.93771e-24 -1.47515e-46)
(-5.5751e-06 -0.373241 -2.98766e-25 -1.97435e-05 2.08589e-23 -3.70334e-54)
(-1.4444e-05 -0.373197 -1.2297e-26 -7.13803e-06 -8.15415e-23 3.70334e-54)
(-2.33665e-05 -0.37332 5.85675e-28 5.67106e-06 4.3913e-34 0)
(-3.27429e-05 -0.373615 -2.13835e-27 1.89135e-05 -3.20667e-33 0)
(-4.21637e-05 -0.374086 -4.48087e-26 3.23832e-05 -6.38938e-26 -3.42097e-53)
(-5.15864e-05 -0.374732 3.13908e-25 4.58434e-05 -9.0574e-24 3.42101e-53)
(-6.13253e-05 -0.375556 7.33364e-24 5.97641e-05 1.25185e-23 -4.73211e-46)
(-7.12897e-05 -0.376564 6.7458e-24 7.39279e-05 2.04316e-23 -7.61308e-46)
(-8.13449e-05 -0.37776 -1.62371e-25 8.8337e-05 -1.70961e-23 -4.34037e-53)
(-9.16371e-05 -0.379156 -9.80979e-26 0.000103249 2.63083e-22 4.34055e-53)
(-0.000102066 -0.380756 1.80381e-24 0.00011835 9.01656e-30 0)
(-0.000113187 -0.382567 5.73313e-23 0.000134391 2.29048e-23 -6.86804e-45)
(-0.000124951 -0.384594 -1.79998e-24 0.000151064 2.91392e-23 0)
(-0.000137241 -0.386837 -5.86136e-28 0.00016807 -4.58907e-22 0)
(-0.000149923 -0.389305 3.84191e-25 0.000186019 -2.80749e-23 0)
(-0.000162736 -0.392012 1.46923e-23 0.000203971 4.85078e-24 -3.63755e-46)
(-0.000176097 -0.394962 -1.91803e-25 0.000222681 -4.2759e-22 4.0618e-52)
(-0.000189913 -0.398164 -2.04292e-25 0.000241729 4.08822e-22 -4.06184e-52)
(-0.000204133 -0.401624 1.52965e-25 0.000261297 -4.0946e-22 0)
(-0.00021849 -0.405354 7.05729e-24 0.000281114 4.61826e-23 -1.72915e-45)
(-0.0002333 -0.409361 -6.99818e-24 0.000301351 -6.52561e-22 -2.44411e-44)
(-0.000248425 -0.413655 2.5308e-25 0.000322036 -1.86114e-26 -1.60993e-47)
(-0.000263913 -0.418239 7.53917e-24 0.000342843 1.32742e-24 -4.21267e-47)
(-0.000279673 -0.423128 7.6974e-24 0.000364349 1.44575e-24 -5.42931e-47)
(-0.000296112 -0.428319 -8.14214e-24 0.000386139 2.74808e-23 1.02943e-45)
(-0.000312948 -0.43383 1.0785e-25 0.000408807 4.11698e-22 0)
(-0.000330095 -0.439655 -5.39981e-29 0.000430981 2.32854e-23 0)
(-0.000347113 -0.44581 -1.20729e-27 0.000454118 3.2827e-22 0)
(-0.000363786 -0.45229 5.56997e-27 0.000475524 3.06654e-22 0)
(-0.000380704 -0.459109 1.00102e-24 0.000499372 1.91744e-25 -1.22932e-47)
(-0.000396823 -0.466279 1.65506e-23 0.000520093 -4.3017e-22 3.22442e-44)
(-0.000412997 -0.473759 -8.71649e-26 0.000542446 -2.87943e-30 0)
(-0.000428165 -0.481579 4.73984e-25 0.000562629 6.42261e-24 5.20335e-50)
(-0.000442043 -0.489685 -9.60111e-25 0.000581808 -6.51346e-24 -1.4253e-49)
(-0.000455046 -0.498091 4.85549e-25 0.000599905 7.47558e-23 9.04979e-50)
(-0.000465419 -0.50675 -8.01409e-28 0.000614491 -7.4112e-25 0)
(-0.000473527 -0.51561 -2.0257e-29 0.000626514 -8.60094e-23 0)
(-0.000478421 -0.52464 -1.29317e-26 0.000634572 1.62507e-22 0)
(-0.000478465 -0.533749 5.26073e-24 0.00063642 -5.14793e-24 9.67664e-47)
(-0.000474753 -0.542857 -2.47757e-25 0.000634058 2.01594e-24 -3.91423e-49)
(-0.000462203 -0.551902 -2.22986e-26 0.000621519 3.27443e-22 7.74274e-50)
(-0.000444984 -0.560634 1.0483e-23 0.000600679 3.60129e-22 -1.34925e-44)
(-0.000420271 -0.569134 5.48111e-25 0.000577464 -3.81496e-22 2.77495e-48)
(-0.000387927 -0.577048 1.08601e-23 0.000533702 -4.01779e-25 1.20052e-47)
(-0.000348144 -0.584454 -1.13935e-23 0.000497455 1.92716e-22 7.22e-45)
(-0.000306783 -0.591008 -2.2184e-23 0.000435188 -1.76773e-22 -1.32462e-44)
(-0.000242255 -0.596969 -7.08236e-26 0.000380762 1.49293e-22 0)
(-0.000219709 -0.601322 0 0.000312391 0 0)
(-0.000178449 -0.606419 1.76705e-30 0.000318825 1.1211e-24 0)
(-0.000194259 -0.211899 -1.02135e-24 9.49584e-05 1.81992e-25 0)
(-0.000132435 -0.213121 -1.91017e-21 8.51426e-05 2.12621e-23 -2.05941e-44)
(-3.3905e-05 -0.214275 -4.32265e-23 -2.86748e-05 -2.35602e-22 3.1934e-44)
(0.000113454 -0.214297 3.86417e-21 -0.000133583 -1.76729e-22 -3.50195e-43)
(0.000213177 -0.213978 3.50748e-23 -0.000225902 -1.0643e-21 4.67236e-46)
(0.000342631 -0.212844 -5.94453e-23 -0.000331134 -5.28059e-24 1.48539e-46)
(0.000440959 -0.211205 -7.37689e-21 -0.000412466 8.17971e-22 -1.82649e-42)
(0.000540935 -0.20901 -7.31196e-21 -0.000495971 9.54128e-22 -4.79232e-42)
(0.000624324 -0.206323 7.22406e-21 -0.000562362 -1.12231e-21 -4.24296e-42)
(0.000693914 -0.203238 -1.31861e-22 -0.000618015 2.83414e-21 2.60684e-44)
(0.000753462 -0.199776 -6.94909e-21 -0.000663468 4.64158e-21 5.59499e-41)
(0.000800694 -0.196012 -1.7267e-23 -0.00069865 8.72656e-26 0)
(0.000837315 -0.191996 -6.77648e-21 -0.000724818 5.55675e-21 6.55887e-41)
(0.000861915 -0.187793 3.46172e-22 -0.000740628 2.46844e-24 5.68191e-43)
(0.000875649 -0.183464 -2.0469e-23 -0.000747438 4.25098e-21 1.12008e-43)
(0.000879426 -0.179062 -1.72785e-22 -0.000745611 2.82577e-22 -4.76527e-44)
(0.000874338 -0.17464 6.97347e-24 -0.000736748 -1.48176e-22 0)
(0.000861811 -0.170238 2.78519e-22 -0.000721588 5.24299e-21 -1.78718e-42)
(0.000842566 -0.165898 5.66795e-21 -0.000701228 -2.47774e-21 -2.5923e-42)
(0.000818498 -0.16165 1.92366e-22 -0.000676892 2.21441e-23 -2.40724e-43)
(0.000790306 -0.157517 -9.47646e-23 -0.000649894 -5.87478e-21 2.62407e-42)
(0.000759183 -0.153521 -3.31064e-21 -0.000620288 1.88118e-21 -4.29684e-42)
(0.000725943 -0.149675 3.81333e-22 -0.0005899 -3.2953e-22 2.13898e-42)
(0.000690874 -0.145992 1.28855e-22 -0.000557665 5.79915e-21 -6.11522e-46)
(0.000655307 -0.14248 -1.40856e-22 -0.000525998 -6.03439e-21 6.09688e-46)
(0.000619414 -0.13914 6.713e-23 -0.000493741 1.08967e-23 9.97428e-43)
(0.000583605 -0.135977 -2.66994e-21 -0.000462405 1.42591e-21 -2.98982e-42)
(0.000548221 -0.132986 -2.29138e-21 -0.000431391 1.27198e-21 4.35229e-43)
(0.000513238 -0.13017 -2.57084e-21 -0.000401122 1.41209e-21 -6.10295e-42)
(0.000479738 -0.127522 1.73254e-22 -0.000372226 2.77431e-21 1.05463e-42)
(0.000447226 -0.125036 -1.15354e-21 -0.000344396 8.07113e-22 2.34888e-43)
(0.000416045 -0.122708 9.31842e-23 -0.00031788 -1.77512e-22 7.85664e-46)
(0.000386158 -0.120531 -3.02232e-23 -0.000292645 -9.79078e-23 -3.34887e-46)
(0.000357693 -0.118497 1.11068e-21 -0.000268717 -3.39607e-21 1.27362e-41)
(0.000330511 -0.116601 -1.08295e-23 -0.000246058 8.30659e-24 2.50886e-43)
(0.000304757 -0.114834 -1.17073e-21 -0.000224604 -7.44001e-22 -7.75636e-42)
(0.000280175 -0.11319 1.14011e-21 -0.000204293 -7.58542e-22 2.37923e-43)
(0.000256968 -0.111662 -2.85703e-23 -0.000185219 4.88812e-23 -1.14808e-43)
(0.000234706 -0.110247 2.70363e-23 -0.000167029 3.4913e-24 3.47667e-45)
(0.00021384 -0.108935 -4.10912e-23 -0.000149932 -6.79903e-24 5.18585e-44)
(0.000193712 -0.107722 5.77254e-22 -0.00013357 -2.71755e-22 -3.77477e-43)
(0.000174511 -0.106604 -6.17317e-23 -0.000118213 6.51525e-22 5.88654e-44)
(0.00015657 -0.10558 -5.04282e-22 -0.000103708 2.90149e-22 -9.22458e-44)
(0.000139001 -0.104645 2.49764e-22 -8.97548e-05 4.60592e-22 -7.32447e-43)
(0.000122261 -0.103797 -2.34087e-22 -7.64092e-05 7.87102e-22 8.00726e-43)
(0.00010567 -0.103031 -2.57139e-22 -6.33618e-05 -1.79194e-22 -4.21932e-43)
(8.95096e-05 -0.102346 -1.245e-22 -5.06306e-05 5.39678e-23 -2.0582e-44)
(7.36157e-05 -0.101741 -2.95575e-24 -3.82471e-05 3.82671e-24 -3.51901e-45)
(5.79268e-05 -0.101213 5.93591e-24 -2.60166e-05 4.16614e-24 1.27113e-46)
(4.22793e-05 -0.100763 -5.31038e-24 -1.39431e-05 9.19869e-24 1.24822e-46)
(2.67263e-05 -0.100391 2.81749e-23 -1.9699e-06 -1.02651e-23 -1.10674e-45)
(1.10247e-05 -0.100097 -1.25483e-22 1.00112e-05 5.27045e-23 -9.77179e-45)
(-4.85059e-06 -0.0998819 3.22341e-24 2.21193e-05 6.03399e-28 0)
(-2.12762e-05 -0.0997476 -2.7382e-27 3.45917e-05 -2.43774e-22 0)
(-3.77972e-05 -0.0996958 -3.60604e-25 4.72113e-05 -1.59682e-23 0)
(-5.45242e-05 -0.0997278 -1.37337e-23 5.98155e-05 -1.28427e-24 -3.12293e-46)
(-7.16154e-05 -0.0998442 8.82755e-24 7.27613e-05 -3.57577e-23 7.099e-46)
(-8.91882e-05 -0.100047 2.11537e-23 8.59927e-05 5.37763e-23 1.25079e-45)
(-0.00010705 -0.100341 -1.81345e-23 9.95368e-05 -3.11998e-23 -6.02107e-46)
(-0.000125711 -0.100728 5.07306e-22 0.000113468 -1.58131e-22 -1.56614e-43)
(-0.0001446 -0.101214 -1.16058e-23 0.000127775 -5.33533e-23 0)
(-0.000164642 -0.101801 -4.75557e-23 0.000142734 8.01997e-22 5.83899e-45)
(-0.000185372 -0.102493 4.06403e-23 0.000158426 7.51722e-22 1.19154e-43)
(-0.000206691 -0.10329 -1.03961e-21 0.00017466 3.729e-22 -7.22599e-44)
(-0.0002291 -0.104199 -4.00851e-23 0.000191671 6.8912e-22 -1.35276e-43)
(-0.000251917 -0.105223 -2.83158e-23 0.000209052 -1.3374e-21 3.1061e-46)
(-0.00027569 -0.106368 -1.10794e-21 0.000227203 2.40551e-22 -6.07782e-43)
(-0.000300052 -0.107638 1.13601e-21 0.000246024 -2.7105e-22 -3.76742e-43)
(-0.000325341 -0.109036 -1.22345e-21 0.000265511 3.30121e-22 -3.09111e-43)
(-0.000351232 -0.110568 1.05781e-22 0.000285564 -7.34308e-23 2.06551e-43)
(-0.000377947 -0.112241 -2.22422e-21 0.000306339 5.38276e-22 -2.20449e-43)
(-0.000405257 -0.114059 2.52185e-23 0.000327805 -1.09351e-21 0)
(-0.000433416 -0.116026 -6.85444e-24 0.000349855 5.41324e-23 4.31387e-47)
(-0.000462246 -0.118148 -5.80227e-24 0.000372735 -1.83631e-21 4.71097e-47)
(-0.000492237 -0.120431 1.55001e-22 0.000396352 5.48718e-23 -2.48603e-43)
(-0.000522597 -0.12288 2.27226e-21 0.000420926 -3.75238e-22 3.84056e-43)
(-0.000553921 -0.125497 1.33243e-22 0.000445679 8.10705e-23 -1.97398e-43)
(-0.000585173 -0.12829 2.36749e-21 0.000471298 8.45623e-22 -1.06971e-41)
(-0.000616671 -0.131259 2.52915e-21 0.000496216 -2.28633e-22 -4.22287e-43)
(-0.000648926 -0.134415 -2.85249e-23 0.000522533 -5.04814e-23 0)
(-0.000679959 -0.137761 -5.31074e-21 0.000547228 -3.96473e-22 -1.50589e-41)
(-0.000710936 -0.141287 1.69403e-23 0.000572582 4.11358e-23 0)
(-0.000740552 -0.145002 1.53711e-22 0.00059648 -4.24125e-22 3.53808e-47)
(-0.000768494 -0.14889 -1.52162e-22 0.000619046 -2.75081e-22 -3.55378e-47)
(-0.000794679 -0.152954 5.78683e-21 0.000640324 -6.2622e-23 -2.04226e-43)
(-0.000816714 -0.157174 7.62803e-23 0.000658157 1.10145e-24 2.47686e-44)
(-0.000834873 -0.161532 5.98654e-21 0.00067286 5.97955e-23 2.20927e-43)
(-0.000847387 -0.166006 -6.29051e-21 0.000682959 -1.17387e-22 5.35125e-43)
(-0.000852167 -0.170561 1.20199e-22 0.000686413 3.85459e-22 -4.51929e-44)
(-0.000850064 -0.175159 -3.1878e-23 0.000684198 -3.24783e-24 -4.02336e-46)
(-0.000834219 -0.179761 -6.63719e-21 0.000670768 3.01397e-22 1.15124e-41)
(-0.000810805 -0.184289 -6.83289e-21 0.000648807 -2.75292e-22 1.08089e-42)
(-0.000774606 -0.188735 6.92603e-21 0.00061954 2.99845e-22 1.01848e-42)
(-0.000727059 -0.192985 1.13149e-23 0.000574309 6.48931e-22 -1.40326e-47)
(-0.000666481 -0.197031 -3.69758e-21 0.000526622 -7.80658e-22 -5.76195e-42)
(-0.000603043 -0.200765 3.82922e-21 0.00046377 1.37519e-22 2.86547e-43)
(-0.000507233 -0.204208 -3.75543e-21 0.000392171 -1.23089e-22 1.64108e-43)
(-0.000467562 -0.20714 -5.50031e-24 0.00033455 8.63074e-25 0)
(-0.000381757 -0.210005 -5.92246e-23 0.000303392 -8.96326e-25 2.30593e-47)
(-0.000303957 -0.179975 2.25773e-21 0.000274652 -6.74784e-25 -1.09624e-46)
(-0.000195141 -0.180695 1.78706e-21 0.000223372 2.60405e-23 4.0266e-45)
(-6.40563e-05 -0.181149 -9.0308e-21 5.46899e-05 1.98607e-22 -5.46169e-43)
(0.000135409 -0.180788 -3.66909e-21 -0.000118979 -1.53648e-21 3.03744e-43)
(0.000275662 -0.18002 -1.78758e-20 -0.000268055 8.83761e-22 -4.81764e-42)
(0.000446702 -0.17865 7.80028e-23 -0.000435185 -2.44227e-21 0)
(0.000584371 -0.176843 7.06889e-21 -0.000571391 1.0038e-21 2.35154e-42)
(0.000718714 -0.174615 6.70545e-21 -0.000707307 1.24037e-21 3.73503e-42)
(0.000834243 -0.172025 -6.5887e-21 -0.000821112 -1.43006e-21 4.04097e-42)
(0.000931258 -0.169141 1.67818e-20 -0.000919266 -2.24985e-21 -1.47281e-41)
(0.00101505 -0.165997 2.25768e-20 -0.00100308 -6.69321e-22 -1.2959e-40)
(0.00108258 -0.162649 4.39663e-23 -0.00107138 -4.03178e-25 0)
(0.00113534 -0.159142 2.16548e-20 -0.00112514 -7.30419e-22 -1.55042e-40)
(0.00117206 -0.155524 -5.80688e-23 -0.00116266 -1.02259e-22 0)
(0.00119383 -0.151843 1.42972e-20 -0.00118561 -3.4155e-21 -1.33159e-41)
(0.001202 -0.14814 6.30723e-22 -0.00119473 1.00772e-22 -5.36818e-42)
(0.00119794 -0.144453 -1.93593e-22 -0.00119195 8.25722e-21 1.61854e-43)
(0.00118347 -0.140814 1.38594e-20 -0.0011785 4.6517e-21 -3.66948e-40)
(0.00115965 -0.137251 -5.90659e-21 -0.00115591 -3.25965e-21 6.80751e-42)
(0.00112913 -0.133785 -1.35805e-22 -0.00112617 9.6104e-23 0)
(0.00109262 -0.130432 -1.32026e-20 -0.00109091 4.12953e-21 -5.31783e-41)
(0.00105195 -0.127206 4.09298e-21 -0.0010508 2.37608e-21 4.33923e-42)
(0.00100787 -0.124118 -5.25067e-22 -0.00100794 -5.20179e-22 3.99245e-42)
(0.000961455 -0.121171 1.146e-20 -0.000961749 -4.11133e-21 -4.48356e-41)
(0.000913664 -0.118372 -1.20228e-20 -0.000915082 -5.38015e-21 -4.23676e-40)
(0.000865473 -0.11572 3.43519e-22 -0.00086704 -4.07325e-22 8.70956e-42)
(0.000817039 -0.113217 2.5797e-21 -0.000819374 6.46501e-21 -1.06542e-43)
(0.000769204 -0.110857 2.15917e-21 -0.000771703 1.92053e-21 1.4443e-42)
(0.000721803 -0.108641 2.4768e-21 -0.000724662 -3.02915e-21 -2.34884e-42)
(0.000676125 -0.106562 4.85834e-21 -0.00067923 -2.28722e-21 2.0973e-44)
(0.00063181 -0.104616 1.18236e-21 -0.000635045 -3.89997e-21 -1.0347e-42)
(0.000589146 -0.102798 -3.31716e-22 -0.000592532 -4.9588e-21 8.29836e-43)
(0.000548261 -0.101103 -2.90243e-22 -0.000551718 -1.12924e-22 -2.03711e-42)
(0.000509215 -0.0995231 -5.71709e-21 -0.000512691 1.29391e-21 -2.94218e-41)
(0.000471909 -0.0980544 1.30202e-22 -0.000475415 -4.79247e-23 0)
(0.000436556 -0.0966895 -1.32648e-21 -0.000439979 1.95237e-21 1.29668e-41)
(0.000402704 -0.0954237 -1.1831e-21 -0.000406129 -3.19166e-21 -1.36762e-42)
(0.000370743 -0.0942519 1.72485e-22 -0.000374073 2.32791e-21 4.43638e-43)
(0.000340124 -0.0931699 -4.16471e-24 -0.000343348 2.26895e-21 0)
(0.000311326 -0.0921718 -1.5152e-23 -0.000314407 4.39564e-23 0)
(0.000283573 -0.0912532 -4.27446e-22 -0.000286509 -3.5562e-22 2.32106e-43)
(0.000257056 -0.0904119 1.15596e-21 -0.000259968 -5.27568e-22 -1.32223e-43)
(0.000232029 -0.0896447 4.73158e-22 -0.000234752 3.38591e-22 -2.85535e-44)
(0.000207422 -0.0889503 8.44149e-22 -0.000210158 -5.74684e-22 1.10271e-42)
(0.000184013 -0.0883263 1.33288e-21 -0.000186571 -3.3499e-22 -1.96727e-42)
(0.000160968 -0.0877687 -3.60673e-22 -0.000163379 4.21875e-22 6.52892e-43)
(0.000138407 -0.087277 1.1796e-22 -0.000140636 5.66478e-22 1.00877e-44)
(0.000116158 -0.0868497 4.10953e-24 -0.000118306 2.77543e-22 -7.30339e-49)
(9.41979e-05 -0.0864864 -7.16461e-24 -9.61314e-05 1.09184e-22 7.30218e-49)
(7.23234e-05 -0.0861867 3.35497e-23 -7.40721e-05 -2.34018e-23 1.85511e-45)
(5.04969e-05 -0.0859503 -1.76183e-23 -5.20468e-05 -1.36611e-22 -8.10489e-46)
(2.83906e-05 -0.0857786 1.02588e-22 -2.97911e-05 3.06697e-22 1.03847e-44)
(6.13942e-06 -0.0856728 -1.40622e-23 -7.2572e-06 -6.27792e-27 0)
(-1.69078e-05 -0.0856314 -5.11562e-22 1.59859e-05 2.06626e-22 1.74152e-44)
(-4.02407e-05 -0.0856598 -1.97694e-23 3.95484e-05 -1.52226e-23 -3.66172e-44)
(-6.37464e-05 -0.0857567 -6.61478e-25 6.32442e-05 -8.00588e-22 0)
(-8.77634e-05 -0.0859231 -5.95204e-23 8.75907e-05 -3.28472e-23 8.10926e-45)
(-0.000112516 -0.0861629 1.24677e-22 0.000112554 -5.36511e-23 -1.64807e-44)
(-0.000137786 -0.0864767 -7.39254e-23 0.000138145 6.05331e-23 8.37276e-45)
(-0.0001642 -0.0868695 -3.84987e-22 0.000164731 -2.48397e-22 2.07653e-43)
(-0.000191033 -0.0873434 -7.88818e-23 0.000191941 -5.48441e-24 1.55386e-43)
(-0.00021932 -0.0879018 2.32937e-21 0.000220422 -5.8317e-22 -1.59809e-42)
(-0.000248466 -0.0885475 2.09793e-21 0.000250006 6.84658e-22 -1.24922e-41)
(-0.000278478 -0.0892825 1.04371e-21 0.000280407 1.86399e-21 -5.89382e-43)
(-0.000309924 -0.09011 2.07256e-21 0.000312232 -1.86012e-21 1.18229e-41)
(-0.000342054 -0.091035 -4.36519e-21 0.000344779 1.1447e-21 1.91066e-43)
(-0.000375473 -0.0920611 8.57229e-22 0.00037859 3.29305e-22 -5.03592e-44)
(-0.000409712 -0.0931919 -9.51394e-22 0.000413321 -2.5786e-21 3.39015e-43)
(-0.000445243 -0.0944309 1.25044e-21 0.000449229 -1.68653e-21 -2.53853e-43)
(-0.000481648 -0.0957827 -2.63934e-22 0.000486052 -4.37742e-23 3.47758e-43)
(-0.000519236 -0.097252 2.22151e-21 0.000524 -1.233e-21 7.56932e-43)
(-0.000557689 -0.0988431 -5.28716e-21 0.000562952 8.77144e-22 -2.53954e-42)
(-0.000597225 -0.10056 2.57997e-22 0.000602844 -9.89316e-23 2.0099e-42)
(-0.000637694 -0.102407 -1.05913e-20 0.000643912 -1.59898e-22 -7.16639e-41)
(-0.00067982 -0.104389 3.6447e-22 0.000686156 2.75855e-21 4.21152e-43)
(-0.000722224 -0.10651 -2.46288e-21 0.000729343 -3.26521e-22 -5.45172e-43)
(-0.000765974 -0.108772 6.79514e-22 0.000773046 -2.23258e-23 -2.02253e-42)
(-0.000809524 -0.111181 8.24269e-21 0.000817542 -1.31574e-21 2.24999e-41)
(-0.000853766 -0.113738 -2.33844e-21 0.000861476 -2.94899e-22 3.82246e-43)
(-0.000898583 -0.116449 -6.72667e-22 0.000906993 -3.49181e-24 -9.24424e-43)
(-0.000942094 -0.119314 -7.11366e-21 0.000950132 2.25153e-21 7.23877e-41)
(-0.000985011 -0.122328 6.86844e-22 0.000993558 2.4567e-24 7.2486e-43)
(-0.0010262 -0.125495 -1.25415e-20 0.00103458 3.44957e-22 -2.19892e-42)
(-0.00106495 -0.128803 -1.28378e-20 0.00107325 2.41574e-22 -1.41611e-42)
(-0.00110076 -0.132248 -5.31672e-21 0.00110896 -6.75553e-23 1.88052e-43)
(-0.001131 -0.135815 -1.88938e-22 0.00113884 1.0427e-24 4.23419e-44)
(-0.00115557 -0.139487 -5.42841e-21 0.00116304 8.93426e-23 -2.70488e-43)
(-0.00117217 -0.143242 5.78414e-21 0.00117919 -1.64639e-22 -4.55452e-43)
(-0.00117842 -0.147051 -1.47759e-20 0.00118468 -2.78982e-22 2.15888e-42)
(-0.00117446 -0.15088 1.01493e-22 0.00118001 -2.32065e-24 -1.11459e-43)
(-0.00115318 -0.154693 -9.1148e-21 0.00115833 -1.72154e-21 -5.58572e-41)
(-0.00112118 -0.158435 6.29392e-21 0.00112396 -3.6531e-22 -1.01503e-42)
(-0.00107127 -0.162073 -6.52222e-21 0.00107593 3.81888e-22 -9.62776e-43)
(-0.00100824 -0.165538 -1.64003e-20 0.00100747 -1.66632e-21 -4.09944e-41)
(-0.000925607 -0.168789 2.01039e-20 0.000930278 3.2792e-22 1.39507e-41)
(-0.000840679 -0.171767 -3.58626e-21 0.00083577 1.67096e-22 -2.55155e-43)
(-0.000716616 -0.174435 3.69557e-21 0.000725609 -1.46468e-22 -1.56878e-43)
(-0.000654281 -0.176692 -2.64142e-23 0.000637842 5.13675e-26 -9.61067e-45)
(-0.000521097 -0.178646 5.66989e-23 0.000549379 -1.13618e-24 -2.20665e-47)
(-0.000383966 -0.154728 -2.16107e-21 0.000358836 -6.13088e-25 1.04972e-46)
(-0.000221797 -0.155075 8.34806e-24 0.000249711 1.19471e-22 0)
(-6.40866e-05 -0.155018 8.60717e-21 5.49978e-05 -4.87368e-22 5.37358e-43)
(0.000178461 -0.154367 -4.05992e-20 -0.000165476 1.14761e-22 -1.00933e-40)
(0.000353767 -0.15328 1.72927e-20 -0.000350684 1.05964e-21 4.80697e-42)
(0.000558324 -0.151757 -3.95102e-20 -0.000552528 -2.33329e-21 -3.55331e-40)
(0.000730423 -0.149854 1.0145e-22 -0.000724621 -7.95136e-22 0)
(0.000891724 -0.147621 5.36187e-25 -0.000888655 -1.01154e-21 0)
(0.00103308 -0.145116 -1.06008e-22 -0.00102915 1.1779e-21 0)
(0.00115159 -0.142405 -1.57116e-20 -0.00114937 -2.83201e-21 1.38884e-41)
(0.00125399 -0.139516 -1.51136e-20 -0.00125226 -1.41447e-20 7.29177e-41)
(0.00133687 -0.136498 -2.72433e-23 -0.00133617 3.25083e-25 0)
(0.00140159 -0.133387 -1.44705e-20 -0.00140191 -5.57388e-21 8.77217e-41)
(0.00144694 -0.130221 -2.4751e-23 -0.00144801 -1.97198e-22 0)
(0.00147399 -0.127037 -1.37033e-20 -0.00147601 -4.01077e-21 1.73081e-41)
(0.00148459 -0.123866 5.35777e-22 -0.00148718 1.33563e-20 0)
(0.00148012 -0.120738 3.07499e-20 -0.00148356 -6.59369e-21 -6.76471e-41)
(0.00146302 -0.117675 1.6728e-20 -0.00146694 -1.16329e-20 5.59149e-40)
(0.00143454 -0.114696 -1.00496e-21 -0.00143908 -1.27009e-20 -4.51432e-45)
(0.00139771 -0.111816 1.05978e-21 -0.00140248 1.82536e-23 4.47625e-45)
(0.00135341 -0.109047 1.1597e-20 -0.00135881 6.23344e-21 4.1094e-41)
(0.00130415 -0.106397 5.34762e-22 -0.00130945 -1.88499e-21 -5.43776e-45)
(0.00125027 -0.103872 -9.97393e-22 -0.00125622 -2.07194e-22 5.39834e-45)
(0.00119388 -0.101473 -1.02322e-20 -0.00119948 -5.61715e-21 6.29529e-41)
(0.0011354 -0.0992038 -1.41089e-20 -0.00114151 1.34191e-20 6.41225e-40)
(0.00107653 -0.0970615 -2.44653e-22 -0.00108229 2.37473e-22 -1.19059e-41)
(0.00101708 -0.0950465 1.12068e-20 -0.00102313 -1.40231e-20 3.30131e-40)
(0.000958434 -0.093154 2.07635e-22 -0.000964189 -1.3031e-21 -1.13039e-41)
(0.000900325 -0.0913819 -1.15223e-20 -0.000906028 2.29836e-21 -2.68176e-41)
(0.000844086 -0.0897248 -4.71833e-21 -0.000849698 -2.4301e-21 4.53713e-42)
(0.000789516 -0.0881782 -1.07844e-20 -0.000794969 2.69162e-21 -1.97468e-41)
(0.000736975 -0.086738 -1.0569e-20 -0.000742241 -4.42149e-21 -3.51194e-40)
(0.000686494 -0.085398 5.55411e-23 -0.00069161 6.64967e-23 -5.75862e-42)
(0.00063824 -0.0841548 4.43752e-21 -0.000643168 3.35305e-21 1.83234e-41)
(0.000592158 -0.0830014 -6.25727e-23 -0.000596903 4.0686e-21 0)
(0.000548415 -0.0819345 2.0387e-21 -0.000552918 7.82125e-22 -4.99681e-42)
(0.000506589 -0.0809481 -4.9841e-21 -0.000510873 2.44638e-21 -8.74378e-42)
(0.00046687 -0.0800392 5.22236e-21 -0.000470972 -1.72392e-21 -8.63257e-42)
(0.000428914 -0.0792037 4.81926e-21 -0.00043281 -1.86931e-21 -3.85021e-42)
(0.000393086 -0.0784373 -1.12903e-22 -0.00039679 2.66838e-25 0)
(0.000358581 -0.0777366 1.08705e-22 -0.000362074 3.03137e-22 3.14177e-43)
(0.000325584 -0.0770989 -1.16356e-21 -0.000328899 -6.97577e-22 -1.94128e-43)
(0.000294183 -0.076523 -6.12462e-23 -0.000297243 -2.09598e-21 -1.42976e-43)
(0.000263417 -0.0760065 -8.93901e-22 -0.000266352 5.05982e-22 2.79511e-43)
(0.000234023 -0.0755473 -1.03012e-21 -0.0002367 -7.91389e-22 7.14023e-43)
(0.000205076 -0.0751437 5.84187e-22 -0.000207587 1.60917e-22 -3.72769e-43)
(0.00017677 -0.0747951 1.10172e-21 -0.000179035 -4.70757e-22 8.99756e-44)
(0.000148818 -0.0744996 6.1506e-22 -0.000150929 2.45261e-22 -1.32175e-42)
(0.000121155 -0.0742572 2.58159e-22 -0.000123023 -2.98054e-22 2.65922e-43)
(9.35718e-05 -0.0740682 -7.87874e-23 -9.52109e-05 -5.71609e-24 -4.20933e-45)
(6.59911e-05 -0.0739328 -2.76127e-22 -6.73934e-05 -9.85497e-23 -2.5914e-43)
(3.79866e-05 -0.0738513 5.84289e-22 -3.9249e-05 -6.24179e-22 8.62959e-43)
(9.86899e-06 -0.0738253 1.3936e-25 -1.08078e-05 -4.0668e-22 0)
(-1.9206e-05 -0.0738543 5.22845e-22 1.84826e-05 1.01014e-21 -1.39245e-44)
(-4.87164e-05 -0.0739399 -8.693e-23 4.82212e-05 -7.1785e-22 3.12919e-44)
(-7.84284e-05 -0.0740838 -2.25398e-21 7.82004e-05 1.4002e-21 6.64881e-42)
(-0.000108895 -0.0742867 -2.84657e-23 0.000108959 1.3268e-21 -2.38271e-43)
(-0.000140279 -0.0745515 -1.31949e-22 0.000140541 -1.35914e-23 -3.19949e-47)
(-0.000172335 -0.074879 1.38401e-22 0.000172973 -1.05434e-23 3.20348e-47)
(-0.000205838 -0.0752735 -2.6767e-24 0.000206722 -1.0231e-21 0)
(-0.000239987 -0.0757371 -3.54508e-23 0.000241273 -6.76079e-23 0)
(-0.00027578 -0.0762722 -1.98832e-21 0.000277337 -7.4489e-22 1.24386e-42)
(-0.000312757 -0.0768811 2.74034e-21 0.000314639 5.37972e-22 -2.11173e-41)
(-0.000350767 -0.0775669 5.14054e-21 0.000352961 -1.3865e-21 -6.21736e-42)
(-0.000390362 -0.0783308 -7.25763e-21 0.000392998 -1.8524e-21 -6.94181e-41)
(-0.000431095 -0.0791787 4.56925e-21 0.000434083 1.29442e-21 -6.89373e-43)
(-0.000473292 -0.080113 -4.61903e-22 0.000476647 1.69941e-21 1.37467e-42)
(-0.000516526 -0.0811364 -1.02256e-20 0.000520316 2.00129e-21 -1.11616e-41)
(-0.000561276 -0.0822526 -1.01528e-20 0.000565475 -2.29122e-21 -1.47968e-40)
(-0.000607206 -0.0834653 1.20949e-23 0.000611811 1.70148e-22 0)
(-0.000654533 -0.0847787 -1.05213e-20 0.000659512 7.13538e-22 -1.70777e-41)
(-0.000702888 -0.0861959 5.26143e-21 0.000708415 4.16818e-21 -1.77381e-43)
(-0.000752642 -0.0877216 -6.78625e-22 0.000758522 2.43908e-23 2.00921e-42)
(-0.000803468 -0.0893586 -1.57456e-21 0.000809958 2.78506e-22 1.03266e-41)
(-0.000856167 -0.0911112 2.27115e-20 0.000862815 -2.27055e-21 -2.76842e-41)
(-0.000909052 -0.0929817 5.41665e-22 0.000916508 3.84746e-22 -1.52469e-43)
(-0.000963535 -0.0949735 -4.34137e-23 0.000971045 1.78903e-21 2.64828e-42)
(-0.00101775 -0.0970891 -1.09455e-20 0.00102617 -6.87464e-22 -1.22914e-41)
(-0.00107289 -0.0993325 5.18636e-23 0.00108114 3.25864e-22 0)
(-0.00112786 -0.101703 8.72763e-23 0.0011372 -4.25884e-23 0)
(-0.00118178 -0.104204 3.70862e-20 0.00119095 -7.03318e-22 -1.13934e-40)
(-0.00123424 -0.10683 -7.11845e-23 0.00124417 -3.86938e-23 0)
(-0.00128456 -0.10958 1.16441e-20 0.0012946 3.97744e-22 2.04179e-42)
(-0.00133148 -0.112448 1.19428e-20 0.00134183 2.50147e-22 1.31763e-42)
(-0.00137414 -0.115423 -1.07375e-23 0.00138483 6.15229e-23 0)
(-0.00140996 -0.118495 -3.3077e-26 0.00142065 -3.36222e-23 0)
(-0.00143819 -0.121646 3.95646e-25 0.00144894 3.609e-22 0)
(-0.00145617 -0.124857 -1.42473e-23 0.00146695 1.31831e-22 0)
(-0.00146152 -0.128101 1.38071e-20 0.00147198 7.49459e-22 -1.92697e-42)
(-0.00145337 -0.131348 -4.32917e-23 0.00146357 3.00865e-24 1.30724e-44)
(-0.0014252 -0.134565 4.88576e-20 0.00143535 -1.27153e-21 2.17883e-40)
(-0.00138329 -0.137713 1.87531e-22 0.00139149 -1.59166e-21 4.26824e-43)
(-0.00131876 -0.140746 -7.10597e-23 0.00132906 -3.09661e-22 0)
(-0.00124025 -0.143623 5.28916e-20 0.00124552 2.25205e-21 -6.16697e-41)
(-0.00113575 -0.146282 -1.6351e-20 0.00114617 7.97044e-22 -7.83164e-42)
(-0.00103027 -0.148694 3.97537e-22 0.00103154 -1.44137e-22 -3.2505e-43)
(-0.000880595 -0.150793 -1.41751e-22 0.000894558 1.26137e-22 -2.46319e-45)
(-0.000792526 -0.152534 -6.42152e-26 0.000782115 2.84578e-22 0)
(-0.00061388 -0.15383 -6.42783e-27 0.000644629 9.25887e-25 0)
(-0.00043643 -0.134548 -1.09839e-20 0.000409207 5.50717e-24 -2.05086e-44)
(-0.000221041 -0.134593 2.19051e-20 0.000243795 -1.29133e-22 -6.1625e-43)
(-4.02425e-05 -0.134164 -4.35896e-20 2.79326e-05 4.25965e-22 -4.76631e-42)
(0.000238252 -0.133283 -5.08566e-21 -0.000228963 2.303e-21 1.76646e-40)
(0.000443226 -0.131974 -4.18277e-22 -0.000443527 2.00709e-21 -4.03883e-45)
(0.000673191 -0.130337 -4.82745e-20 -0.000670624 6.00448e-21 5.88357e-40)
(0.000875157 -0.128389 7.14905e-22 -0.000871743 4.381e-23 2.49402e-42)
(0.00105905 -0.126192 -2.9448e-22 -0.00105721 -5.70554e-21 2.211e-47)
(0.00122072 -0.123779 3.09715e-22 -0.00121785 -6.63186e-21 -2.18459e-47)
(0.00135543 -0.121218 -5.86961e-22 -0.00135373 2.30739e-21 -2.80317e-42)