/*--------------------------------*- C++ -*----------------------------------*\
| =========                 |                                                 |
| \\      /  F ield         | OpenFOAM: The Open Source CFD Toolbox           |
|  \\    /   O peration     | Version:  2306                                  |
|   \\  /    A nd           | Website:  www.openfoam.com                      |
|    \\/     M anipulation  |                                                 |
\*---------------------------------------------------------------------------*/
// * * * * * * * * * * * * * * * * * * * * * * * * * * * * * * * * * * * * * //
FoamFile
{
    version         2;
    format          ascii;
    class           volVectorField;
    location        "0";
    object          Udns;
}

dimensions      [ 0 1 -1 0 0 0 0 ];

internalField   nonuniform List<vector> 
14751
(
(0.00143291 -4.92829e-07 6.06647e-07)
(0.00145216 -3.73803e-07 6.24268e-07)
(0.00146741 -2.97412e-07 6.57935e-07)
(0.00147843 -2.38284e-07 6.91014e-07)
(0.00148504 -1.03833e-07 7.17722e-07)
(0.00148718 2.1305e-08 7.53171e-07)
(0.00148487 7.89066e-08 8.15533e-07)
(0.00147832 1.65436e-07 8.93228e-07)
(0.00146778 2.93369e-07 9.67399e-07)
(0.00145361 3.57798e-07 1.03985e-06)
(0.00143618 3.85755e-07 1.10978e-06)
(0.00141591 4.7694e-07 1.1657e-06)
(0.00139329 5.55795e-07 1.21631e-06)
(0.00136873 5.54369e-07 1.24903e-06)
(0.00134272 5.72639e-07 1.25541e-06)
(0.00131563 6.30017e-07 1.24336e-06)
(0.00128787 6.34124e-07 1.2268e-06)
(0.00125979 6.04474e-07 1.22822e-06)
(0.00123172 6.23212e-07 1.2568e-06)
(0.00120392 6.39333e-07 1.28512e-06)
(0.00117672 5.95044e-07 1.29884e-06)
(0.00115028 5.6706e-07 1.27784e-06)
(0.00112472 5.70566e-07 1.2062e-06)
(0.00110015 5.4461e-07 1.12636e-06)
(0.00107672 4.99725e-07 1.05373e-06)
(0.00105452 4.81407e-07 9.59185e-07)
(0.00103351 4.68508e-07 8.66773e-07)
(0.00101365 4.31507e-07 7.99567e-07)
(0.000994891 4.01853e-07 7.3673e-07)
(0.000977363 3.80115e-07 6.64685e-07)
(0.000961065 3.55724e-07 6.44216e-07)
(0.000945688 3.34783e-07 6.63171e-07)
(0.000931095 3.18938e-07 7.04631e-07)
(0.000917221 3.00973e-07 7.219e-07)
(0.000904227 2.80559e-07 7.491e-07)
(0.00089216 2.66596e-07 8.15864e-07)
(0.000880805 2.46481e-07 8.50488e-07)
(0.000870035 2.31139e-07 8.34993e-07)
(0.000859849 2.27866e-07 7.79215e-07)
(0.000850241 2.14225e-07 7.23667e-07)
(0.000841052 1.91312e-07 6.90927e-07)
(0.000832226 1.97731e-07 6.71319e-07)
(0.00082337 2.12035e-07 6.326e-07)
(0.000814773 1.83857e-07 6.11179e-07)
(0.000806799 1.61729e-07 6.64282e-07)
(0.000799159 1.81536e-07 7.91005e-07)
(0.000791424 1.84167e-07 9.98035e-07)
(0.000783439 1.66458e-07 1.1161e-06)
(0.000775233 1.84545e-07 1.19302e-06)
(0.000766706 2.164e-07 1.29849e-06)
(0.000758168 1.87848e-07 1.34458e-06)
(0.000749884 1.65032e-07 1.39503e-06)
(0.000741557 2.03541e-07 1.33037e-06)
(0.000732718 2.11502e-07 1.28014e-06)
(0.000723747 1.868e-07 1.25952e-06)
(0.00071474 1.90261e-07 1.19966e-06)
(0.000706215 2.10989e-07 1.14923e-06)
(0.000698232 1.71356e-07 1.07193e-06)
(0.000690612 1.4705e-07 1.0791e-06)
(0.000683186 1.73253e-07 1.21415e-06)
(0.000676193 1.61087e-07 1.31998e-06)
(0.000670191 1.11462e-07 1.45624e-06)
(0.000664823 1.01923e-07 1.49244e-06)
(0.000660721 1.03411e-07 1.49899e-06)
(0.000657754 5.44224e-08 1.43257e-06)
(0.000656085 -1.44357e-09 1.35451e-06)
(0.000655896 -5.09926e-09 1.30782e-06)
(0.000657303 -3.21061e-08 1.21803e-06)
(0.000660455 -9.98929e-08 1.10703e-06)
(0.000665311 -1.38381e-07 1.05237e-06)
(0.000672214 -1.5747e-07 1.00934e-06)
(0.000681285 -2.20824e-07 9.89477e-07)
(0.000692379 -2.8809e-07 9.99695e-07)
(0.000705268 -3.01007e-07 1.00812e-06)
(0.000719884 -3.2568e-07 1.0279e-06)
(0.00073611 -3.85261e-07 1.05374e-06)
(0.000753966 -4.20511e-07 1.02895e-06)
(0.000773365 -4.33307e-07 9.59102e-07)
(0.000794303 -4.78906e-07 9.04316e-07)
(0.000816919 -5.3202e-07 9.08403e-07)
(0.000841119 -5.525e-07 9.28882e-07)
(0.000866852 -5.78148e-07 9.25942e-07)
(0.000893981 -6.19347e-07 9.05027e-07)
(0.000922411 -6.47859e-07 8.86456e-07)
(0.000952085 -6.70266e-07 8.54894e-07)
(0.000983024 -6.995e-07 8.06452e-07)
(0.00101511 -7.25192e-07 7.58765e-07)
(0.00104821 -7.47129e-07 7.27011e-07)
(0.00108222 -7.69877e-07 6.99494e-07)
(0.0011169 -7.77266e-07 6.82273e-07)
(0.00115204 -7.81989e-07 6.65331e-07)
(0.00118742 -7.96976e-07 6.49605e-07)
(0.00122273 -7.91522e-07 6.27939e-07)
(0.0012576 -7.60455e-07 6.13695e-07)
(0.0012916 -7.48258e-07 6.21299e-07)
(0.00132431 -7.37557e-07 6.29857e-07)
(0.00135527 -6.70406e-07 6.25688e-07)
(0.00138402 -6.02471e-07 6.16612e-07)
(0.00141005 -5.67321e-07 6.09767e-07)
(0.00436322 -1.50067e-06 1.84724e-06)
(0.00442182 -1.13823e-06 1.9009e-06)
(0.00446827 -9.05619e-07 2.00341e-06)
(0.00450922 -7.26768e-07 2.10759e-06)
(0.00453679 -3.17211e-07 2.19264e-06)
(0.00455076 6.51933e-08 2.3047e-06)
(0.00455113 2.41849e-07 2.49961e-06)
(0.00453844 5.07887e-07 2.74221e-06)
(0.00451342 9.01418e-07 2.97483e-06)
(0.00447711 1.1031e-06 3.20284e-06)
(0.00443059 1.1909e-06 3.42375e-06)
(0.00437514 1.47286e-06 3.60208e-06)
(0.0043122 1.72119e-06 3.76455e-06)
(0.00424304 1.71951e-06 3.87202e-06)
(0.00416909 1.77719e-06 3.89806e-06)
(0.00409157 1.95853e-06 3.86683e-06)
(0.004011 1.9846e-06 3.82124e-06)
(0.00392919 1.90404e-06 3.83153e-06)
(0.00384722 1.97102e-06 3.92679e-06)
(0.0037659 2.03461e-06 4.02153e-06)
(0.00368616 1.90452e-06 4.07092e-06)
(0.0036035 1.81499e-06 4.0051e-06)
(0.00352856 1.83549e-06 3.78613e-06)
(0.00345664 1.76096e-06 3.54105e-06)
(0.00338816 1.62914e-06 3.31787e-06)
(0.00331847 1.56601e-06 3.02064e-06)
(0.00325721 1.53107e-06 2.73312e-06)
(0.0031948 1.41119e-06 2.52114e-06)
(0.0031406 1.32262e-06 2.32693e-06)
(0.0030854 1.2496e-06 2.09916e-06)
(0.0030386 1.17573e-06 2.0369e-06)
(0.0029902 1.10741e-06 2.09689e-06)
(0.00294867 1.06046e-06 2.23232e-06)
(0.00290483 1.00012e-06 2.28869e-06)
(0.00286389 9.32595e-07 2.37578e-06)
(0.00283015 8.89055e-07 2.59139e-06)
(0.00279433 8.24643e-07 2.70106e-06)
(0.00276033 7.73654e-07 2.65153e-06)
(0.00272822 7.58509e-07 2.47559e-06)
(0.00270201 7.16879e-07 2.3016e-06)
(0.00267302 6.46254e-07 2.19808e-06)
(0.00264515 6.62473e-07 2.13465e-06)
(0.00261716 7.06649e-07 2.01026e-06)
(0.00259004 6.19765e-07 1.94088e-06)
(0.00256487 5.44133e-07 2.11117e-06)
(0.00254069 6.08848e-07 2.51762e-06)
(0.00251633 6.17909e-07 3.17522e-06)
(0.00249107 5.60079e-07 3.55552e-06)
(0.00246906 6.25741e-07 3.80359e-06)
(0.00244214 7.215e-07 4.13341e-06)
(0.00241513 6.32031e-07 4.27669e-06)
(0.002389 5.59278e-07 4.43881e-06)
(0.00235889 6.78004e-07 4.22875e-06)
(0.00233097 7.04534e-07 4.06646e-06)
(0.00230261 6.2888e-07 3.99998e-06)
(0.00227419 6.43082e-07 3.80904e-06)
(0.00224725 7.04952e-07 3.64611e-06)
(0.00222205 5.73023e-07 3.4021e-06)
(0.00219804 4.96854e-07 3.42715e-06)
(0.00217455 5.82039e-07 3.85567e-06)
(0.00214899 5.37428e-07 4.18295e-06)
(0.00213005 3.77769e-07 4.61514e-06)
(0.00211317 3.39324e-07 4.72938e-06)
(0.00210025 3.36628e-07 4.75186e-06)
(0.00208745 1.82139e-07 4.53806e-06)
(0.00208224 1.33144e-09 4.291e-06)
(0.00208172 -1.79514e-08 4.14135e-06)
(0.00208271 -1.08863e-07 3.85293e-06)
(0.00209273 -3.28102e-07 3.50345e-06)
(0.00210459 -4.53884e-07 3.3248e-06)
(0.00212643 -5.22816e-07 3.19012e-06)
(0.00215507 -7.3243e-07 3.12686e-06)
(0.00218635 -9.422e-07 3.15243e-06)
(0.00222326 -9.83599e-07 3.1735e-06)
(0.00226928 -1.06683e-06 3.2354e-06)
(0.00231649 -1.25041e-06 3.31147e-06)
(0.00236855 -1.35506e-06 3.22895e-06)
(0.00242944 -1.39883e-06 3.01084e-06)
(0.00249101 -1.53623e-06 2.83438e-06)
(0.00255757 -1.69382e-06 2.8426e-06)
(0.00262889 -1.74948e-06 2.90217e-06)
(0.00270478 -1.82014e-06 2.88853e-06)
(0.00278483 -1.93806e-06 2.81898e-06)
(0.00286866 -2.01463e-06 2.75691e-06)
(0.00295618 -2.08102e-06 2.65451e-06)
(0.00304733 -2.16848e-06 2.50008e-06)
(0.00314171 -2.24444e-06 2.34844e-06)
(0.00323893 -2.30865e-06 2.2465e-06)
(0.0033386 -2.37496e-06 2.15797e-06)
(0.00344001 -2.39378e-06 2.10142e-06)
(0.00354247 -2.40481e-06 2.04591e-06)
(0.00364535 -2.44697e-06 1.99432e-06)
(0.00374762 -2.42574e-06 1.92465e-06)
(0.00384821 -2.3267e-06 1.87791e-06)
(0.00394582 -2.28627e-06 1.89806e-06)
(0.00403913 -2.24926e-06 1.92106e-06)
(0.00413355 -2.04449e-06 1.90835e-06)
(0.00421432 -1.83474e-06 1.87759e-06)
(0.00429361 -1.72748e-06 1.85674e-06)
(0.00718829 -4.83892e-06 3.12943e-06)
(0.00726781 -3.9243e-06 3.22174e-06)
(0.0073415 -2.88104e-06 3.40253e-06)
(0.00739536 -1.87854e-06 3.59056e-06)
(0.00743498 -7.57745e-07 3.74495e-06)
(0.00746072 2.5568e-07 3.93575e-06)
(0.00745868 1.27729e-06 4.24703e-06)
(0.00744442 2.27404e-06 4.64866e-06)
(0.00741054 3.2652e-06 5.06406e-06)
(0.00736116 4.12416e-06 5.45649e-06)
(0.00729515 4.86732e-06 5.83129e-06)
(0.00721585 5.58214e-06 6.13792e-06)
(0.00712725 6.08222e-06 6.42418e-06)
(0.00702773 6.5065e-06 6.62597e-06)
(0.0069231 6.86621e-06 6.69603e-06)
(0.00681318 7.06905e-06 6.66787e-06)
(0.0066981 7.30651e-06 6.57615e-06)
(0.0065819 7.39345e-06 6.5908e-06)
(0.00645992 7.326e-06 6.777e-06)
(0.00633819 7.25145e-06 6.96544e-06)
(0.00622444 7.09084e-06 7.07826e-06)
(0.0061103 6.92171e-06 6.97988e-06)
(0.00599872 6.70472e-06 6.60927e-06)
(0.0058919 6.39957e-06 6.17953e-06)
(0.00578758 6.1578e-06 5.79487e-06)
(0.00569215 5.81515e-06 5.30574e-06)
(0.0055973 5.51079e-06 4.78924e-06)
(0.0055081 5.221e-06 4.41247e-06)
(0.00542522 4.93726e-06 4.07105e-06)
(0.00534808 4.58854e-06 3.67906e-06)
(0.00527529 4.30213e-06 3.53952e-06)
(0.00520921 4.09969e-06 3.65187e-06)
(0.00514122 3.8913e-06 3.93435e-06)
(0.00507684 3.69424e-06 4.08934e-06)
(0.00502112 3.4336e-06 4.28812e-06)
(0.00496597 3.19565e-06 4.67105e-06)
(0.00491481 3.04676e-06 4.86123e-06)
(0.00486574 2.88966e-06 4.76466e-06)
(0.00482102 2.69352e-06 4.49627e-06)
(0.00477371 2.551e-06 4.13356e-06)
(0.00473334 2.49347e-06 3.96907e-06)
(0.00469393 2.4256e-06 3.81459e-06)
(0.00465045 2.4037e-06 3.55417e-06)
(0.00461296 2.31068e-06 3.38943e-06)
(0.00457384 2.13133e-06 3.76468e-06)
(0.00453657 2.10636e-06 4.55449e-06)
(0.00449935 2.15274e-06 5.79054e-06)
(0.00446082 2.22172e-06 6.5856e-06)
(0.00442493 2.31426e-06 6.9398e-06)
(0.00438415 2.35415e-06 7.3354e-06)
(0.00434237 2.33196e-06 7.46941e-06)
(0.00430194 2.26462e-06 7.82367e-06)
(0.00425772 2.33381e-06 7.51787e-06)
(0.00421452 2.41858e-06 7.1422e-06)
(0.00417088 2.51266e-06 7.00029e-06)
(0.00412672 2.44492e-06 6.632e-06)
(0.00408166 2.27304e-06 6.2639e-06)
(0.00404243 2.11462e-06 5.86299e-06)
(0.0040017 2.09122e-06 6.00477e-06)
(0.00396579 2.01063e-06 6.69923e-06)
(0.00392898 1.78283e-06 7.21419e-06)
(0.00389696 1.57508e-06 7.94718e-06)
(0.00386893 1.29724e-06 8.11781e-06)
(0.00384657 9.2109e-07 8.21421e-06)
(0.00383023 6.34563e-07 7.97403e-06)
(0.00382096 2.37515e-07 7.55333e-06)
(0.00381609 -2.05593e-07 7.21327e-06)
(0.00382286 -6.85851e-07 6.76434e-06)
(0.00383489 -1.11889e-06 6.22763e-06)
(0.00386049 -1.66195e-06 5.89419e-06)
(0.00389222 -2.28044e-06 5.7124e-06)
(0.00393552 -2.88837e-06 5.5652e-06)
(0.00398863 -3.36809e-06 5.513e-06)
(0.0040472 -3.86929e-06 5.50768e-06)
(0.00411973 -4.32123e-06 5.58407e-06)
(0.0041952 -4.72339e-06 5.68818e-06)
(0.00427828 -5.13121e-06 5.54494e-06)
(0.00436909 -5.52139e-06 5.2422e-06)
(0.00446921 -5.94208e-06 4.93007e-06)
(0.00457439 -6.31583e-06 4.9191e-06)
(0.00468691 -6.71105e-06 5.00949e-06)
(0.00480332 -7.0464e-06 4.95984e-06)
(0.00492581 -7.35402e-06 4.83382e-06)
(0.00505819 -7.6245e-06 4.72685e-06)
(0.0051889 -7.90089e-06 4.53563e-06)
(0.0053263 -8.15386e-06 4.27391e-06)
(0.0054647 -8.35526e-06 4.0177e-06)
(0.00560726 -8.52551e-06 3.84884e-06)
(0.00575413 -8.65816e-06 3.71209e-06)
(0.00589965 -8.73053e-06 3.59872e-06)
(0.00604782 -8.72359e-06 3.48379e-06)
(0.00619487 -8.67718e-06 3.37925e-06)
(0.00633654 -8.5398e-06 3.26935e-06)
(0.00647552 -8.29929e-06 3.19571e-06)
(0.00661585 -7.97955e-06 3.22346e-06)
(0.00674462 -7.52334e-06 3.2549e-06)
(0.00686966 -7.05115e-06 3.23084e-06)
(0.00698562 -6.37841e-06 3.17027e-06)
(0.00709068 -5.60001e-06 3.13523e-06)
(0.00994625 -8.70237e-06 4.47955e-06)
(0.010042 -6.92881e-06 4.61963e-06)
(0.0101239 -4.96039e-06 4.87297e-06)
(0.0101914 -3.01008e-06 5.13964e-06)
(0.0102379 -9.79304e-07 5.3669e-06)
(0.0102681 1.05783e-06 5.62947e-06)
(0.0102666 3.07923e-06 6.01257e-06)
(0.0102442 5.07179e-06 6.54621e-06)
(0.0102055 6.89576e-06 7.12638e-06)
(0.0101397 8.49675e-06 7.68407e-06)
(0.0100591 1.00593e-05 8.19851e-06)
(0.00995868 1.13752e-05 8.61151e-06)
(0.00984731 1.245e-05 9.02113e-06)
(0.0097225 1.32816e-05 9.33453e-06)
(0.00959156 1.40051e-05 9.48026e-06)
(0.00945107 1.45007e-05 9.45367e-06)
(0.00930811 1.4815e-05 9.30496e-06)
(0.00916147 1.49859e-05 9.31762e-06)
(0.00901094 1.50213e-05 9.5757e-06)
(0.00886525 1.48469e-05 9.84106e-06)
(0.00872059 1.45179e-05 9.97573e-06)
(0.0085781 1.41513e-05 9.845e-06)
(0.00843938 1.37471e-05 9.37847e-06)
(0.00830541 1.31789e-05 8.85434e-06)
(0.00817903 1.25845e-05 8.3448e-06)
(0.00805472 1.19362e-05 7.6778e-06)
(0.00793994 1.13521e-05 6.94444e-06)
(0.00783227 1.07662e-05 6.42355e-06)
(0.00773039 1.01617e-05 5.96685e-06)
(0.00763266 9.4773e-06 5.46927e-06)
(0.007539 8.89825e-06 5.25572e-06)
(0.00745538 8.43764e-06 5.38581e-06)
(0.00737234 8.01316e-06 5.83608e-06)
(0.00729546 7.60347e-06 6.18783e-06)
(0.00722355 7.06362e-06 6.56179e-06)
(0.0071543 6.59484e-06 7.08048e-06)
(0.00708951 6.23137e-06 7.30745e-06)
(0.00702967 5.87956e-06 7.17869e-06)
(0.006974 5.54822e-06 6.78131e-06)
(0.00691771 5.25744e-06 6.3211e-06)
(0.00686728 5.0885e-06 6.01576e-06)
(0.00681503 5.00545e-06 5.69519e-06)
(0.00676374 4.93943e-06 5.32977e-06)
(0.0067146 4.67435e-06 5.07955e-06)
(0.00666868 4.33529e-06 5.70179e-06)
(0.00662192 4.30241e-06 6.87228e-06)
(0.00657864 4.36629e-06 8.68818e-06)
(0.00653073 4.47376e-06 9.88372e-06)
(0.00648151 4.6491e-06 1.03514e-05)
(0.00643112 4.7962e-06 1.07144e-05)
(0.00637956 4.77071e-06 1.08179e-05)
(0.00632913 4.57973e-06 1.12856e-05)
(0.00627917 4.80938e-06 1.09451e-05)
(0.00622358 4.97073e-06 1.03941e-05)
(0.00617016 5.06386e-06 1.0169e-05)
(0.00611357 4.90973e-06 9.51411e-06)
(0.0060596 4.62168e-06 8.83003e-06)
(0.00600909 4.2969e-06 8.36016e-06)
(0.00596078 4.16766e-06 8.77575e-06)
(0.00591542 3.94469e-06 9.66332e-06)
(0.00587051 3.54307e-06 1.0178e-05)
(0.0058318 2.92512e-06 1.10483e-05)
(0.00579958 2.42548e-06 1.13726e-05)
(0.00577418 1.76805e-06 1.15434e-05)
(0.00575724 9.90513e-07 1.13385e-05)
(0.00574701 1.27274e-07 1.07569e-05)
(0.00574688 -7.17497e-07 1.02924e-05)
(0.00575845 -1.73006e-06 9.83007e-06)
(0.00578153 -2.77749e-06 9.2814e-06)
(0.00581379 -3.85888e-06 8.83666e-06)
(0.00586014 -5.0748e-06 8.6195e-06)
(0.00592082 -6.31893e-06 8.29338e-06)
(0.00599242 -7.41384e-06 8.01751e-06)
(0.00607653 -8.41697e-06 7.89405e-06)
(0.00617083 -9.29288e-06 7.96914e-06)
(0.00627226 -1.01777e-05 8.05057e-06)
(0.00638658 -1.1046e-05 7.84963e-06)
(0.00650763 -1.17693e-05 7.5421e-06)
(0.00663504 -1.25852e-05 7.16649e-06)
(0.00677294 -1.3359e-05 7.08847e-06)
(0.00691738 -1.40457e-05 7.15281e-06)
(0.00706805 -1.47248e-05 7.05692e-06)
(0.00722393 -1.52713e-05 6.8535e-06)
(0.00738711 -1.57493e-05 6.68194e-06)
(0.00755656 -1.62276e-05 6.40715e-06)
(0.00772552 -1.66107e-05 6.04858e-06)
(0.00790067 -1.69285e-05 5.71294e-06)
(0.00807697 -1.71568e-05 5.49082e-06)
(0.00825605 -1.72947e-05 5.32134e-06)
(0.00843338 -1.7297e-05 5.13587e-06)
(0.0086122 -1.71814e-05 4.95241e-06)
(0.00878188 -1.69347e-05 4.79693e-06)
(0.00895242 -1.6513e-05 4.65723e-06)
(0.00912267 -1.59575e-05 4.56837e-06)
(0.00928225 -1.51527e-05 4.58856e-06)
(0.00943381 -1.4227e-05 4.61492e-06)
(0.00957185 -1.31068e-05 4.57718e-06)
(0.00970851 -1.18489e-05 4.50488e-06)
(0.00983856 -1.03003e-05 4.46873e-06)
(0.0125772 -1.30615e-05 5.90049e-06)
(0.0126707 -1.01343e-05 6.08892e-06)
(0.0127525 -7.05477e-06 6.40102e-06)
(0.0128174 -3.88708e-06 6.73043e-06)
(0.0128643 -5.93105e-07 7.03098e-06)
(0.0128831 2.78098e-06 7.3333e-06)
(0.0128754 6.0204e-06 7.73337e-06)
(0.0128446 9.10183e-06 8.33026e-06)
(0.0127797 1.21376e-05 9.02972e-06)
(0.0127022 1.47822e-05 9.72166e-06)
(0.0125968 1.71553e-05 1.03381e-05)
(0.0124738 1.92824e-05 1.08424e-05)
(0.0123417 2.10338e-05 1.13361e-05)
(0.0121918 2.24103e-05 1.17799e-05)
(0.0120358 2.35131e-05 1.20078e-05)
(0.0118724 2.43462e-05 1.19931e-05)
(0.0117017 2.48937e-05 1.18057e-05)
(0.0115324 2.51346e-05 1.18232e-05)
(0.0113579 2.51276e-05 1.20895e-05)
(0.0111881 2.49056e-05 1.23399e-05)
(0.0110195 2.43721e-05 1.24244e-05)
(0.0108551 2.3766e-05 1.22688e-05)
(0.0106963 2.30428e-05 1.18122e-05)
(0.0105424 2.21249e-05 1.13668e-05)
(0.0103975 2.11557e-05 1.08287e-05)
(0.0102573 2.01346e-05 1.00604e-05)
(0.0101272 1.912e-05 9.1465e-06)
(0.0100017 1.8118e-05 8.5149e-06)
(0.0098857 1.71336e-05 8.03775e-06)
(0.00977491 1.60267e-05 7.57343e-06)
(0.00966887 1.50362e-05 7.33966e-06)
(0.00957095 1.42109e-05 7.4397e-06)
(0.00947726 1.34951e-05 7.98358e-06)
(0.00938972 1.2766e-05 8.56179e-06)
(0.0093093 1.18859e-05 9.17361e-06)
(0.00923219 1.10778e-05 9.72014e-06)
(0.00916149 1.04557e-05 9.85652e-06)
(0.00909267 9.81154e-06 9.72142e-06)
(0.00902957 9.23008e-06 9.2143e-06)
(0.00897006 8.81174e-06 8.81035e-06)
(0.00890989 8.53815e-06 8.30825e-06)
(0.00885162 8.34264e-06 7.81672e-06)
(0.00879643 8.14813e-06 7.43688e-06)
(0.00874096 7.74511e-06 7.22569e-06)
(0.00869159 7.2402e-06 7.99571e-06)
(0.00864194 7.06411e-06 9.50169e-06)
(0.0085903 7.17156e-06 1.16058e-05)
(0.00854108 7.36672e-06 1.29757e-05)
(0.00848798 7.55124e-06 1.36528e-05)
(0.0084344 7.76643e-06 1.40457e-05)
(0.00837981 7.78087e-06 1.42516e-05)
(0.0083258 7.53642e-06 1.46811e-05)
(0.00826952 7.73843e-06 1.43516e-05)
(0.00821583 8.01645e-06 1.37928e-05)
(0.00815814 8.15263e-06 1.34764e-05)
(0.00809839 7.88408e-06 1.24429e-05)
(0.00804445 7.37448e-06 1.14498e-05)
(0.0079913 6.88989e-06 1.10203e-05)
(0.00794131 6.60507e-06 1.16653e-05)
(0.0078958 6.10693e-06 1.25673e-05)
(0.0078532 5.38482e-06 1.29277e-05)
(0.00781784 4.37037e-06 1.36989e-05)
(0.00779067 3.48728e-06 1.42337e-05)
(0.00776891 2.29159e-06 1.44638e-05)
(0.00775758 9.84529e-07 1.42716e-05)
(0.0077589 -5.29125e-07 1.36575e-05)
(0.007769 -2.0838e-06 1.3191e-05)
(0.00779004 -3.79528e-06 1.28984e-05)
(0.0078276 -5.53405e-06 1.24821e-05)
(0.00787594 -7.44692e-06 1.1969e-05)
(0.00793839 -9.50996e-06 1.16805e-05)
(0.00801943 -1.15905e-05 1.10727e-05)
(0.00811132 -1.34014e-05 1.05267e-05)
(0.00821425 -1.50657e-05 1.02269e-05)
(0.00833285 -1.65995e-05 1.02295e-05)
(0.00846315 -1.80735e-05 1.01991e-05)
(0.0085969 -1.94377e-05 9.97812e-06)
(0.00874801 -2.07214e-05 9.75131e-06)
(0.00890199 -2.20009e-05 9.39591e-06)
(0.00906396 -2.31728e-05 9.20519e-06)
(0.00923758 -2.42792e-05 9.15839e-06)
(0.0094138 -2.52739e-05 9.00261e-06)
(0.009599 -2.60969e-05 8.73034e-06)
(0.00978505 -2.67605e-05 8.49352e-06)
(0.00997576 -2.73715e-05 8.1435e-06)
(0.0101708 -2.78647e-05 7.72914e-06)
(0.0103707 -2.82255e-05 7.3623e-06)
(0.0105714 -2.84454e-05 7.12556e-06)
(0.0107665 -2.84591e-05 6.92346e-06)
(0.0109648 -2.82944e-05 6.67805e-06)
(0.0111605 -2.79155e-05 6.42075e-06)
(0.0113503 -2.73313e-05 6.22748e-06)
(0.0115362 -2.64899e-05 6.06851e-06)
(0.0117119 -2.53461e-05 5.96323e-06)
(0.0118788 -2.39658e-05 5.96079e-06)
(0.0120395 -2.23118e-05 5.96262e-06)
(0.0121907 -2.0379e-05 5.92844e-06)
(0.0123303 -1.81785e-05 5.86838e-06)
(0.0124648 -1.57683e-05 5.84812e-06)
(0.0149306 -1.7382e-05 7.39352e-06)
(0.0150142 -1.3144e-05 7.63871e-06)
(0.0150919 -8.59498e-06 7.96913e-06)
(0.0151544 -3.9137e-06 8.30695e-06)
(0.0151953 8.24855e-07 8.63869e-06)
(0.0152153 5.59689e-06 8.95444e-06)
(0.0151878 1.03548e-05 9.29744e-06)
(0.0151314 1.49018e-05 9.86116e-06)
(0.0150466 1.90866e-05 1.0579e-05)
(0.0149401 2.29326e-05 1.13341e-05)
(0.0148114 2.64205e-05 1.20104e-05)
(0.014665 2.93805e-05 1.25775e-05)
(0.0145036 3.18527e-05 1.31238e-05)
(0.0143319 3.38696e-05 1.36559e-05)
(0.014152 3.54643e-05 1.40062e-05)
(0.013963 3.65552e-05 1.40221e-05)
(0.0137724 3.73144e-05 1.38801e-05)
(0.0135815 3.76852e-05 1.39198e-05)
(0.013389 3.7646e-05 1.41086e-05)
(0.0132013 3.72703e-05 1.42419e-05)
(0.0130139 3.64888e-05 1.42134e-05)
(0.0128334 3.55351e-05 1.40593e-05)
(0.0126624 3.44724e-05 1.37653e-05)
(0.0124944 3.31154e-05 1.35706e-05)
(0.0123365 3.16669e-05 1.31369e-05)
(0.012183 3.01631e-05 1.23594e-05)
(0.0120394 2.86194e-05 1.13859e-05)
(0.0119034 2.71211e-05 1.07021e-05)
(0.0117749 2.56128e-05 1.03019e-05)
(0.011656 2.40094e-05 1.00323e-05)
(0.0115414 2.2526e-05 9.87253e-06)
(0.0114362 2.12426e-05 9.92037e-06)
(0.0113366 2.01012e-05 1.04448e-05)
(0.0112453 1.89697e-05 1.11359e-05)
(0.0111566 1.76643e-05 1.19257e-05)
(0.0110778 1.64681e-05 1.23218e-05)
(0.0110008 1.54737e-05 1.22109e-05)
(0.01093 1.44958e-05 1.2058e-05)
(0.0108649 1.36426e-05 1.1591e-05)
(0.0108015 1.30293e-05 1.13129e-05)
(0.0107386 1.25963e-05 1.07118e-05)
(0.0106788 1.22305e-05 1.01625e-05)
(0.0106233 1.18399e-05 9.83553e-06)
(0.0105688 1.12458e-05 9.82216e-06)
(0.0105174 1.05561e-05 1.06231e-05)
(0.0104664 1.02224e-05 1.23253e-05)
(0.0104199 1.03439e-05 1.43277e-05)
(0.0103686 1.0526e-05 1.55809e-05)
(0.0103203 1.07264e-05 1.65307e-05)
(0.0102695 1.09958e-05 1.71e-05)
(0.0102185 1.09919e-05 1.76301e-05)
(0.0101652 1.06919e-05 1.78986e-05)
(0.0101162 1.08416e-05 1.76132e-05)
(0.0100656 1.11917e-05 1.72217e-05)
(0.0100129 1.12112e-05 1.68063e-05)
(0.00996231 1.08366e-05 1.55801e-05)
(0.00991469 1.01325e-05 1.43962e-05)
(0.00987122 9.41206e-06 1.39455e-05)
(0.00982954 8.79867e-06 1.44725e-05)
(0.00979153 7.94789e-06 1.51315e-05)
(0.00976128 6.77959e-06 1.54056e-05)
(0.00973977 5.23948e-06 1.59694e-05)
(0.00972475 3.83404e-06 1.66439e-05)
(0.00971716 2.00788e-06 1.68817e-05)
(0.00972245 -9.37655e-08 1.66374e-05)
(0.0097376 -2.37666e-06 1.61869e-05)
(0.00976773 -4.74364e-06 1.58317e-05)
(0.00980905 -7.28501e-06 1.57514e-05)
(0.00986383 -1.00398e-05 1.54935e-05)
(0.00993613 -1.28643e-05 1.48894e-05)
(0.0100226 -1.59258e-05 1.44384e-05)
(0.0101211 -1.89524e-05 1.35821e-05)
(0.0102349 -2.16959e-05 1.28019e-05)
(0.0103655 -2.42056e-05 1.23236e-05)
(0.0105034 -2.64408e-05 1.2176e-05)
(0.0106545 -2.85996e-05 1.1961e-05)
(0.0108126 -3.05979e-05 1.17883e-05)
(0.0109832 -3.24718e-05 1.1661e-05)
(0.0111619 -3.42388e-05 1.13929e-05)
(0.0113484 -3.58931e-05 1.10771e-05)
(0.0115371 -3.73595e-05 1.08621e-05)
(0.0117349 -3.87093e-05 1.06134e-05)
(0.0119394 -3.97664e-05 1.03248e-05)
(0.0121414 -4.05794e-05 1.00383e-05)
(0.0123522 -4.13244e-05 9.61701e-06)
(0.0125621 -4.18392e-05 9.20251e-06)
(0.0127728 -4.21208e-05 8.87909e-06)
(0.0129836 -4.22025e-05 8.66984e-06)
(0.0131929 -4.20115e-05 8.43849e-06)
(0.0133989 -4.15312e-05 8.14091e-06)
(0.0135988 -4.07461e-05 7.83915e-06)
(0.0137948 -3.96377e-05 7.63489e-06)
(0.01398 -3.81687e-05 7.45668e-06)
(0.0141557 -3.63271e-05 7.33342e-06)
(0.0143096 -3.40763e-05 7.27037e-06)
(0.0144517 -3.1419e-05 7.21387e-06)
(0.0145849 -2.84578e-05 7.1996e-06)
(0.0147068 -2.51144e-05 7.21902e-06)
(0.0148294 -2.14232e-05 7.26179e-06)
(0.0169486 -2.09442e-05 8.89797e-06)
(0.0170066 -1.50531e-05 9.18393e-06)
(0.0170628 -8.95201e-06 9.46222e-06)
(0.0171003 -2.61974e-06 9.71838e-06)
(0.0171198 3.84981e-06 1.00027e-05)
(0.0171134 1.0311e-05 1.02689e-05)
(0.0170768 1.6525e-05 1.05257e-05)
(0.0170149 2.25211e-05 1.09789e-05)
(0.0169284 2.80911e-05 1.16045e-05)
(0.0168071 3.31422e-05 1.23375e-05)
(0.0166534 3.76714e-05 1.30234e-05)
(0.016483 4.15912e-05 1.36417e-05)
(0.0162967 4.48495e-05 1.42162e-05)
(0.0161029 4.74423e-05 1.47888e-05)
(0.0159007 4.94497e-05 1.52649e-05)
(0.0156948 5.09049e-05 1.5374e-05)
(0.0154873 5.18253e-05 1.53829e-05)
(0.0152789 5.22335e-05 1.54986e-05)
(0.0150715 5.21671e-05 1.55747e-05)
(0.0148678 5.15442e-05 1.55229e-05)
(0.0146711 5.04368e-05 1.54065e-05)
(0.0144794 4.91037e-05 1.53115e-05)
(0.0142948 4.75322e-05 1.5331e-05)
(0.014119 4.56937e-05 1.54088e-05)
(0.0139513 4.36972e-05 1.51387e-05)
(0.0137921 4.16356e-05 1.44731e-05)
(0.0136422 3.952e-05 1.36405e-05)
(0.013499 3.74465e-05 1.2974e-05)
(0.0133664 3.53599e-05 1.26944e-05)
(0.0132402 3.31863e-05 1.26852e-05)
(0.0131218 3.10868e-05 1.26976e-05)
(0.0130143 2.92379e-05 1.27118e-05)
(0.0129122 2.75968e-05 1.30946e-05)
(0.0128171 2.59449e-05 1.37026e-05)
(0.0127285 2.41564e-05 1.44438e-05)
(0.0126477 2.24999e-05 1.44919e-05)
(0.0125702 2.10818e-05 1.41126e-05)
(0.0124997 1.97163e-05 1.3865e-05)
(0.012433 1.85422e-05 1.36191e-05)
(0.0123709 1.76958e-05 1.34107e-05)
(0.0123109 1.70544e-05 1.29788e-05)
(0.0122533 1.64309e-05 1.24841e-05)
(0.0121988 1.56951e-05 1.22305e-05)
(0.0121508 1.49291e-05 1.24685e-05)
(0.0121019 1.40458e-05 1.32949e-05)
(0.0120558 1.35106e-05 1.51345e-05)
(0.0120125 1.35255e-05 1.67134e-05)
(0.0119693 1.37005e-05 1.76722e-05)
(0.0119274 1.38216e-05 1.88258e-05)
(0.0118842 1.4035e-05 1.97424e-05)
(0.0118425 1.40434e-05 2.07142e-05)
(0.011799 1.36996e-05 2.07984e-05)
(0.0117576 1.36669e-05 2.05166e-05)
(0.0117168 1.38893e-05 2.03407e-05)
(0.0116787 1.3817e-05 1.99372e-05)
(0.0116441 1.32372e-05 1.88801e-05)
(0.0116104 1.22746e-05 1.77725e-05)
(0.0115788 1.12577e-05 1.70586e-05)
(0.0115536 1.02598e-05 1.70232e-05)
(0.0115343 8.84635e-06 1.73362e-05)
(0.0115249 7.07969e-06 1.7669e-05)
(0.0115222 4.96541e-06 1.80788e-05)
(0.0115282 2.86614e-06 1.87486e-05)
(0.011545 2.43662e-07 1.89369e-05)
(0.0115714 -2.72882e-06 1.86256e-05)
(0.0116115 -5.91541e-06 1.84783e-05)
(0.0116641 -9.25397e-06 1.82066e-05)
(0.0117315 -1.2856e-05 1.81754e-05)
(0.0118124 -1.66648e-05 1.79154e-05)
(0.0119082 -2.05741e-05 1.71097e-05)
(0.0120152 -2.47034e-05 1.64575e-05)
(0.0121394 -2.87422e-05 1.54924e-05)
(0.012278 -3.24766e-05 1.46399e-05)
(0.0124253 -3.58222e-05 1.40173e-05)
(0.012585 -3.89019e-05 1.36692e-05)
(0.0127581 -4.18156e-05 1.32451e-05)
(0.0129392 -4.45455e-05 1.31654e-05)
(0.0131242 -4.69751e-05 1.30875e-05)
(0.0133197 -4.91937e-05 1.28698e-05)
(0.0135216 -5.12754e-05 1.2499e-05)
(0.0137283 -5.31281e-05 1.21379e-05)
(0.013938 -5.47279e-05 1.1814e-05)
(0.0141501 -5.59198e-05 1.1552e-05)
(0.0143637 -5.68271e-05 1.12222e-05)
(0.0145799 -5.75389e-05 1.07659e-05)
(0.014797 -5.79602e-05 1.0417e-05)
(0.0150107 -5.80332e-05 1.02016e-05)
(0.0152225 -5.78236e-05 1.0049e-05)
(0.015434 -5.72794e-05 9.77589e-06)
(0.0156365 -5.63006e-05 9.43671e-06)
(0.0158248 -5.492e-05 9.12778e-06)
(0.0159917 -5.30886e-05 8.92198e-06)
(0.0161521 -5.07739e-05 8.72067e-06)
(0.0162951 -4.79104e-05 8.54788e-06)
(0.0164302 -4.45674e-05 8.40215e-06)
(0.016554 -4.06994e-05 8.28122e-06)
(0.0166646 -3.64002e-05 8.31939e-06)
(0.0167697 -3.16298e-05 8.48545e-06)
(0.0168682 -2.64971e-05 8.65798e-06)
(0.0186878 -2.35416e-05 1.03347e-05)
(0.0187212 -1.58742e-05 1.06359e-05)
(0.0187473 -7.96e-06 1.08113e-05)
(0.0187548 1.23609e-07 1.09454e-05)
(0.0187438 8.40849e-06 1.11285e-05)
(0.0187085 1.65643e-05 1.1314e-05)
(0.0186448 2.45031e-05 1.14739e-05)
(0.0185558 3.20385e-05 1.17446e-05)
(0.018439 3.89938e-05 1.21382e-05)
(0.018301 4.52999e-05 1.27188e-05)
(0.0181408 5.09225e-05 1.3363e-05)
(0.017949 5.57483e-05 1.40168e-05)
(0.0177437 5.97157e-05 1.46107e-05)
(0.0175301 6.29285e-05 1.51694e-05)
(0.0173104 6.53296e-05 1.57223e-05)
(0.0170898 6.70241e-05 1.60128e-05)
(0.0168668 6.80492e-05 1.62244e-05)
(0.0166462 6.84644e-05 1.64689e-05)
(0.0164288 6.82136e-05 1.64703e-05)
(0.0162169 6.73499e-05 1.62954e-05)
(0.0160101 6.58569e-05 1.62146e-05)
(0.0158128 6.40526e-05 1.62651e-05)
(0.0156231 6.19731e-05 1.65788e-05)
(0.0154412 5.95011e-05 1.68506e-05)
(0.0152691 5.69441e-05 1.67166e-05)
(0.0151066 5.42676e-05 1.62605e-05)
(0.0149524 5.14804e-05 1.57907e-05)
(0.0148065 4.87301e-05 1.52986e-05)
(0.0146703 4.59831e-05 1.51233e-05)
(0.0145436 4.31884e-05 1.52885e-05)
(0.0144246 4.04444e-05 1.54401e-05)
(0.014315 3.79076e-05 1.54688e-05)
(0.0142118 3.56788e-05 1.56297e-05)
(0.0141133 3.34183e-05 1.59514e-05)
(0.0140226 3.11102e-05 1.63015e-05)
(0.0139385 2.89481e-05 1.58389e-05)
(0.0138615 2.7021e-05 1.52535e-05)
(0.0137905 2.52183e-05 1.49064e-05)
(0.0137242 2.37043e-05 1.49369e-05)
(0.0136618 2.25483e-05 1.47973e-05)
(0.0136035 2.15482e-05 1.47046e-05)
(0.0135507 2.05881e-05 1.43282e-05)
(0.0135012 1.94947e-05 1.41955e-05)
(0.0134566 1.8433e-05 1.4572e-05)
(0.0134157 1.73412e-05 1.55662e-05)
(0.0133749 1.66289e-05 1.73442e-05)
(0.0133391 1.64139e-05 1.84091e-05)
(0.0133043 1.64005e-05 1.90096e-05)
(0.0132716 1.64241e-05 2.03935e-05)
(0.0132398 1.65337e-05 2.17953e-05)
(0.0132106 1.63883e-05 2.30847e-05)
(0.0131815 1.59545e-05 2.3041e-05)
(0.0131554 1.57235e-05 2.27383e-05)
(0.0131318 1.56838e-05 2.27114e-05)
(0.0131111 1.53264e-05 2.25199e-05)
(0.0130952 1.44818e-05 2.19269e-05)
(0.0130814 1.32831e-05 2.11409e-05)
(0.0130712 1.18326e-05 2.0072e-05)
(0.0130697 1.0205e-05 1.94205e-05)
(0.0130769 8.16527e-06 1.94802e-05)
(0.0130919 5.72197e-06 1.97972e-05)
(0.0131158 2.86132e-06 2.0086e-05)
(0.0131495 -1.01024e-09 2.06416e-05)
(0.0131941 -3.49281e-06 2.07787e-05)
(0.0132512 -7.41018e-06 2.05636e-05)
(0.0133206 -1.16352e-05 2.05787e-05)
(0.0134047 -1.60319e-05 2.02416e-05)
(0.0135018 -2.06994e-05 2.00137e-05)
(0.0136088 -2.56808e-05 1.94314e-05)
(0.0137299 -3.07199e-05 1.83905e-05)
(0.0138627 -3.59173e-05 1.76269e-05)
(0.0140095 -4.10477e-05 1.66935e-05)
(0.0141685 -4.57579e-05 1.59618e-05)
(0.0143368 -4.99713e-05 1.52831e-05)
(0.0145156 -5.38838e-05 1.47075e-05)
(0.0147022 -5.75486e-05 1.41313e-05)
(0.0148985 -6.09097e-05 1.4089e-05)
(0.0150999 -6.39085e-05 1.39577e-05)
(0.0153074 -6.65616e-05 1.37004e-05)
(0.0155159 -6.8915e-05 1.33834e-05)
(0.0157313 -7.10411e-05 1.30366e-05)
(0.015946 -7.2778e-05 1.27042e-05)
(0.0161621 -7.40175e-05 1.24513e-05)
(0.0163779 -7.48669e-05 1.20771e-05)
(0.0165947 -7.5442e-05 1.16646e-05)
(0.0168078 -7.55748e-05 1.14386e-05)
(0.0170187 -7.53052e-05 1.13393e-05)
(0.0172258 -7.46566e-05 1.12416e-05)
(0.0174273 -7.35402e-05 1.0935e-05)
(0.0176055 -7.1889e-05 1.05388e-05)
(0.0177684 -6.96766e-05 1.02317e-05)
(0.0179178 -6.68745e-05 1.00259e-05)
(0.0180572 -6.34879e-05 9.81516e-06)
(0.0181811 -5.94665e-05 9.60185e-06)
(0.0182957 -5.47824e-05 9.40248e-06)
(0.0183934 -4.95314e-05 9.24109e-06)
(0.0184823 -4.37414e-05 9.34223e-06)
(0.0185611 -3.74931e-05 9.65021e-06)
(0.0186391 -3.07706e-05 9.98812e-06)
(0.0201491 -2.48097e-05 1.16364e-05)