/*--------------------------------*- C++ -*----------------------------------*\
| =========                 |                                                 |
| \\      /  F ield         | OpenFOAM: The Open Source CFD Toolbox           |
|  \\    /   O peration     | Version:  2306                                  |
|   \\  /    A nd           | Website:  www.openfoam.com                      |
|    \\/     M anipulation  |                                                 |
\*---------------------------------------------------------------------------*/
// * * * * * * * * * * * * * * * * * * * * * * * * * * * * * * * * * * * * * //
FoamFile
{
    version         2;
    format          ascii;
    class           volVectorField;
    location        "7258.82999998519063";
    object          U;
}

dimensions      [ 0 1 -1 0 0 0 0 ];

internalField   nonuniform List<vector> 
14751
(
(0.00395362 -3.73341e-07 0)
(0.00395249 -5.24314e-07 0)
(0.00395797 -1.14587e-07 2.00476e-27)
(0.00394455 8.9142e-08 -8.00091e-27)
(0.00393036 3.51105e-07 1.27382e-25)
(0.00390485 5.99483e-07 -8.26553e-26)
(0.00387401 7.97907e-07 0)
(0.00383669 1.01069e-06 -1.12527e-25)
(0.00379357 1.17728e-06 4.42827e-27)
(0.00374646 1.33093e-06 -3.17319e-27)
(0.00369559 1.46055e-06 1.69423e-25)
(0.00364216 1.56902e-06 0)
(0.00358664 1.65711e-06 0)
(0.00352982 1.72139e-06 -1.13934e-25)
(0.00347242 1.76647e-06 -1.18278e-25)
(0.00341504 1.79125e-06 0)
(0.00335829 1.80008e-06 0)
(0.0033026 1.79263e-06 0)
(0.00324839 1.77197e-06 -7.29825e-26)
(0.00319601 1.73959e-06 0)
(0.00314564 1.69953e-06 4.92348e-27)
(0.0030975 1.64975e-06 3.48287e-26)
(0.00305166 1.59747e-06 0)
(0.00300821 1.53641e-06 0)
(0.00296724 1.47692e-06 0)
(0.00292863 1.41167e-06 5.3038e-27)
(0.0028925 1.3483e-06 -5.30335e-26)
(0.00285864 1.28233e-06 5.29861e-27)
(0.00282716 1.2169e-06 0)
(0.00279788 1.15309e-06 5.36885e-27)
(0.00277075 1.08988e-06 3.47688e-26)
(0.00274567 1.02838e-06 -4.00197e-26)
(0.00272256 9.6848e-07 -2.65996e-27)
(0.00270131 9.10425e-07 -3.96635e-26)
(0.00268183 8.53954e-07 1.83935e-26)
(0.00266406 7.99514e-07 1.30685e-27)
(0.00264793 7.4691e-07 3.63353e-30)
(0.00263331 6.96821e-07 -6.55764e-25)
(0.00262012 6.47353e-07 1.27045e-27)
(0.00260835 6.00695e-07 0)
(0.00259794 5.55247e-07 0)
(0.00258876 5.11896e-07 0)
(0.00258071 4.71229e-07 0)
(0.00257376 4.30515e-07 0)
(0.00256784 3.9103e-07 1.49975e-25)
(0.00256298 3.5129e-07 -2.89333e-28)
(0.00255915 3.11659e-07 -1.4476e-25)
(0.00255633 2.72586e-07 0)
(0.0025545 2.3314e-07 1.39538e-25)
(0.00255366 1.93663e-07 -1.36823e-25)
(0.00255379 1.5401e-07 -2.59429e-28)
(0.0025549 1.13491e-07 2.58619e-28)
(0.00255697 7.20984e-08 0)
(0.00256005 2.92102e-08 0)
(0.00256419 -1.4516e-08 9.44248e-28)
(0.00256935 -5.84432e-08 -9.42374e-28)
(0.00257557 -1.03999e-07 -1.16943e-25)
(0.00258288 -1.504e-07 -1.11943e-25)
(0.0025913 -1.97546e-07 -1.68641e-27)
(0.00260083 -2.46653e-07 1.6852e-27)
(0.00261147 -2.96172e-07 0)
(0.0026233 -3.49009e-07 -7.9485e-25)
(0.00263636 -4.03577e-07 0)
(0.0026508 -4.58848e-07 0)
(0.00266663 -5.17153e-07 0)
(0.00268387 -5.75084e-07 -1.69667e-25)
(0.00270253 -6.3523e-07 -2.46876e-27)
(0.00272272 -6.95784e-07 2.4743e-27)
(0.00274447 -7.57672e-07 0)
(0.0027678 -8.19827e-07 -6.50022e-26)
(0.00279272 -8.82732e-07 5.69651e-26)
(0.00281932 -9.46439e-07 2.77291e-28)
(0.00284758 -1.00988e-06 -5.3016e-26)
(0.0028776 -1.07493e-06 -5.23931e-26)
(0.00290934 -1.1402e-06 4.80302e-26)
(0.00294299 -1.20724e-06 0)
(0.0029785 -1.27218e-06 0)
(0.00301594 -1.33933e-06 0)
(0.00305525 -1.4007e-06 0)
(0.00309636 -1.46958e-06 -2.89859e-27)
(0.00313934 -1.52776e-06 -3.9107e-26)
(0.00318401 -1.59109e-06 0)
(0.00323056 -1.64713e-06 -6.16694e-28)
(0.00327858 -1.70047e-06 9.72323e-28)
(0.00332815 -1.75003e-06 -3.53805e-28)
(0.00337904 -1.7891e-06 0)
(0.0034309 -1.82097e-06 0)
(0.00348358 -1.84166e-06 0)
(0.00353652 -1.84536e-06 5.72788e-27)
(0.00358921 -1.83803e-06 -3.77609e-28)
(0.00364133 -1.80426e-06 3.15443e-29)
(0.00369125 -1.74911e-06 1.69017e-26)
(0.00373956 -1.69173e-06 1.11354e-27)
(0.00378402 -1.57637e-06 1.7851e-26)
(0.00382519 -1.4909e-06 -1.84365e-26)
(0.00386086 -1.32554e-06 -3.1337e-26)
(0.00389288 -1.20326e-06 0)
(0.0039143 -1.00847e-06 0)
(0.00394132 -1.03461e-06 0)
(0.00583247 -2.4326e-07 0)
(0.00584414 -4.06389e-07 4.32839e-25)
(0.00586433 3.06427e-07 4.52329e-26)
(0.00585578 7.68632e-07 -3.61668e-24)
(0.00584497 1.26164e-06 -8.02699e-26)
(0.00581554 1.77506e-06 5.29459e-26)
(0.00577655 2.16802e-06 1.67059e-23)
(0.00572595 2.58132e-06 2.07816e-23)
(0.00566483 2.89565e-06 -2.40377e-23)
(0.00559588 3.16332e-06 2.54194e-26)
(0.00551935 3.37542e-06 3.1242e-23)
(0.00543713 3.53753e-06 0)
(0.00535006 3.65604e-06 3.8753e-23)
(0.00525952 3.72361e-06 -1.87651e-24)
(0.00516677 3.74891e-06 -6.56115e-27)
(0.00507291 3.73177e-06 1.42025e-24)
(0.00497903 3.68197e-06 0)
(0.00488596 3.60142e-06 -1.64726e-24)
(0.00479451 3.49655e-06 -5.18282e-23)
(0.00470535 3.37195e-06 -3.51272e-24)
(0.00461889 3.23611e-06 -1.13396e-25)
(0.0045356 3.0862e-06 3.62069e-23)
(0.00445568 2.9355e-06 -3.64185e-24)
(0.00437938 2.77317e-06 -1.88992e-24)
(0.0043069 2.61719e-06 1.87311e-24)
(0.00423813 2.45594e-06 -1.92075e-24)
(0.00417329 2.30177e-06 3.26027e-23)
(0.00411214 2.14788e-06 2.88274e-23)
(0.00405486 1.99818e-06 3.46332e-23)
(0.0040012 1.85538e-06 -1.91447e-24)
(0.00395109 1.71755e-06 1.53046e-23)
(0.0039044 1.58621e-06 -9.26002e-25)
(0.00386098 1.46099e-06 9.47401e-25)
(0.00382071 1.34204e-06 -1.50454e-23)
(0.00378341 1.229e-06 -9.48671e-25)
(0.00374899 1.12162e-06 1.66647e-23)
(0.00371732 1.01976e-06 -1.51218e-23)
(0.0036882 9.24189e-07 -7.41353e-28)
(0.00366154 8.32071e-07 -4.46364e-25)
(0.00363723 7.45658e-07 8.83459e-25)
(0.00361521 6.62693e-07 -7.84373e-24)
(0.00359528 5.84933e-07 4.31139e-25)
(0.00357734 5.12143e-07 6.76663e-24)
(0.00356129 4.41488e-07 -3.12223e-24)
(0.00354703 3.73816e-07 2.76202e-24)
(0.00353461 3.07096e-07 3.31855e-24)
(0.00352395 2.41571e-07 1.6788e-24)
(0.00351504 1.7794e-07 9.74811e-26)
(0.00350783 1.14714e-07 -9.48993e-26)
(0.00350233 5.22887e-08 9.29536e-26)
(0.00349852 -9.65044e-09 -3.63875e-25)
(0.0034964 -7.17988e-08 1.42328e-24)
(0.00349596 -1.34683e-07 0)
(0.00349729 -1.99569e-07 0)
(0.00350042 -2.65432e-07 0)
(0.00350534 -3.30955e-07 1.5915e-25)
(0.0035121 -3.98551e-07 -8.03911e-26)
(0.00352073 -4.67244e-07 -2.24298e-25)
(0.0035313 -5.37168e-07 3.0004e-25)
(0.0035438 -6.09102e-07 -4.58677e-24)
(0.00355829 -6.82135e-07 0)
(0.00357487 -7.59358e-07 5.35986e-25)
(0.00359362 -8.39958e-07 -5.07017e-25)
(0.0036147 -9.22601e-07 7.97993e-24)
(0.00363817 -1.00984e-06 4.87869e-25)
(0.00366408 -1.09746e-06 1.14399e-25)
(0.00369246 -1.18898e-06 7.42189e-24)
(0.00372348 -1.28289e-06 -7.09012e-24)
(0.00375718 -1.37968e-06 7.09168e-24)
(0.00379362 -1.4782e-06 -7.23478e-25)
(0.00383286 -1.57934e-06 1.12121e-23)
(0.00387501 -1.68327e-06 0)
(0.00392008 -1.7884e-06 3.83225e-26)
(0.00396823 -1.8975e-06 3.54334e-26)
(0.00401944 -2.00858e-06 -5.27549e-25)
(0.00407397 -2.12503e-06 -7.06623e-24)
(0.00413176 -2.23948e-06 -3.99003e-25)
(0.00419294 -2.35948e-06 -5.61523e-24)
(0.00425745 -2.47102e-06 -5.23585e-24)
(0.00432526 -2.59448e-06 0)
(0.00439648 -2.70297e-06 7.35914e-24)
(0.00447083 -2.81921e-06 0)
(0.0045486 -2.92489e-06 -1.08057e-25)
(0.00462919 -3.02468e-06 1.08951e-25)
(0.00471274 -3.11915e-06 -1.25933e-24)
(0.00479885 -3.19536e-06 1.24581e-26)
(0.004887 -3.25772e-06 1.4422e-24)
(0.00497688 -3.2989e-06 -2.71804e-24)
(0.00506758 -3.30657e-06 7.96171e-26)
(0.00515831 -3.29109e-06 -3.31368e-26)
(0.00524841 -3.2196e-06 -5.4351e-24)
(0.0053355 -3.10245e-06 -5.98071e-24)
(0.00542036 -2.96845e-06 6.29967e-24)
(0.00549964 -2.72709e-06 -1.23728e-26)
(0.00557416 -2.51674e-06 -3.14912e-24)
(0.00564072 -2.1776e-06 2.93402e-24)
(0.00570179 -1.85843e-06 -2.44606e-24)
(0.00574836 -1.50182e-06 0)
(0.00580238 -1.52684e-06 -1.83401e-26)
(0.00748987 -1.19018e-06 -3.10895e-27)
(0.00751041 -1.25723e-06 -3.78752e-25)
(0.00754143 1.11519e-07 4.03768e-24)
(0.00753796 1.20497e-06 3.21965e-24)
(0.00753092 2.2569e-06 1.85474e-23)
(0.00750032 3.41378e-06 0)
(0.00745667 4.32567e-06 -1.53956e-23)
(0.00739749 5.27892e-06 -1.83547e-23)
(0.00732401 6.04611e-06 2.16617e-23)
(0.00723954 6.71391e-06 -5.06109e-23)
(0.00714445 7.2743e-06 -8.57891e-23)
(0.00704108 7.72779e-06 0)
(0.00693059 8.08445e-06 -1.04683e-22)
(0.0068148 8.32737e-06 0)
(0.00669538 8.47167e-06 -7.85466e-23)
(0.00657384 8.51808e-06 -5.3885e-24)
(0.00645163 8.48398e-06 2.76622e-24)
(0.00632989 8.37461e-06 -9.8304e-23)
(0.00620977 8.20216e-06 5.25895e-23)
(0.00609217 7.97866e-06 0)
(0.00597769 7.71962e-06 1.12155e-22)
(0.00586698 7.42331e-06 -4.05049e-23)
(0.00576038 7.11353e-06 6.79809e-24)
(0.00565824 6.7743e-06 -1.11981e-22)
(0.00556088 6.43838e-06 1.1701e-22)
(0.00546821 6.0879e-06 5.65051e-26)
(0.00538054 5.74476e-06 -3.24309e-23)
(0.0052976 5.39918e-06 -2.89878e-23)
(0.00521964 5.05859e-06 -3.27109e-23)
(0.00514638 4.73026e-06 -5.45343e-23)
(0.00507774 4.4105e-06 -1.81635e-23)
(0.00501356 4.10306e-06 3.61229e-24)
(0.00495368 3.80775e-06 1.80421e-24)
(0.00489792 3.52531e-06 6.99122e-23)
(0.0048461 3.25531e-06 0)
(0.00479806 2.99784e-06 1.23632e-23)
(0.00475367 2.75224e-06 1.75025e-23)
(0.00471267 2.52022e-06 -1.73564e-24)
(0.00467494 2.29663e-06 0)
(0.00464034 2.08585e-06 0)
(0.00460877 1.88288e-06 6.68716e-24)
(0.00458001 1.69125e-06 -1.31915e-23)
(0.00455394 1.5102e-06 -6.90549e-24)
(0.00453044 1.33404e-06 -8.80244e-24)
(0.00450941 1.16474e-06 -1.61442e-23)
(0.00449085 9.9783e-07 3.09657e-24)
(0.00447469 8.33912e-07 -1.52121e-24)
(0.00446091 6.73747e-07 -9.26346e-26)
(0.00444946 5.14554e-07 9.22208e-26)
(0.00444034 3.56737e-07 -3.58793e-25)
(0.00443353 1.9963e-07 2.64278e-25)
(0.00442904 4.14791e-08 -1.28791e-24)
(0.00442687 -1.18814e-07 0)
(0.0044271 -2.8414e-07 4.92189e-24)
(0.00442982 -4.51675e-07 3.23367e-25)
(0.004435 -6.19214e-07 0)
(0.00444269 -7.91596e-07 5.98271e-25)
(0.00445295 -9.67461e-07 -1.17803e-24)
(0.00446586 -1.1469e-06 5.79976e-25)
(0.00448144 -1.33187e-06 3.88689e-24)
(0.00449976 -1.52056e-06 1.07173e-24)
(0.00452096 -1.71854e-06 -1.70922e-23)
(0.00454513 -1.92484e-06 -1.49892e-23)
(0.00457243 -2.13651e-06 -8.65831e-24)
(0.00460297 -2.35808e-06 -1.38401e-23)
(0.0046368 -2.58207e-06 2.64595e-23)
(0.00467398 -2.81481e-06 -5.87148e-24)
(0.0047147 -3.05332e-06 6.40725e-24)
(0.00475902 -3.29842e-06 -7.55003e-24)
(0.00480701 -3.54788e-06 1.47825e-24)
(0.00485875 -3.80349e-06 -1.20885e-23)
(0.00491438 -4.0648e-06 2.14861e-23)
(0.00497391 -4.32956e-06 -1.12542e-24)
(0.00503751 -4.60176e-06 3.57684e-23)
(0.00510519 -4.87895e-06 -9.43147e-25)
(0.00517725 -5.16443e-06 8.13459e-24)
(0.00525359 -5.44702e-06 -1.5147e-24)
(0.00533437 -5.73706e-06 -1.55806e-23)
(0.00541949 -6.01206e-06 4.94349e-24)
(0.00550898 -6.30438e-06 9.52731e-25)
(0.00560292 -6.56798e-06 6.72166e-24)
(0.00570095 -6.83957e-06 -7.71326e-25)
(0.00580339 -7.08747e-06 7.93366e-24)
(0.0059095 -7.31755e-06 5.10154e-24)
(0.00601941 -7.52928e-06 1.17108e-24)
(0.00613256 -7.69706e-06 -2.27124e-26)
(0.00624827 -7.82753e-06 -1.32262e-24)
(0.00636606 -7.90428e-06 2.46083e-24)
(0.00648475 -7.90446e-06 -6.93501e-24)
(0.00660326 -7.84359e-06 6.05944e-26)
(0.00672066 -7.65928e-06 -4.86642e-24)
(0.00683404 -7.38164e-06 5.36502e-24)
(0.00694422 -7.04176e-06 -5.73372e-24)
(0.00704727 -6.51173e-06 -1.12825e-23)
(0.00714411 -5.99608e-06 1.37094e-23)
(0.00723121 -5.27847e-06 -2.58638e-24)
(0.0073113 -4.53687e-06 2.25894e-24)
(0.00737499 -3.848e-06 -1.47267e-26)
(0.00744717 -3.60519e-06 1.65289e-26)
(0.00896962 -2.65115e-06 2.83891e-27)
(0.00899591 -2.36253e-06 0)
(0.00903395 -1.7484e-07 -3.69666e-24)
(0.00903431 1.81994e-06 2.37413e-23)
(0.00902988 3.64558e-06 -1.71733e-23)
(0.00899845 5.67324e-06 4.47836e-23)
(0.00895088 7.32684e-06 0)
(0.00888471 9.01877e-06 0)
(0.00880124 1.04305e-05 0)
(0.00870424 1.1669e-05 4.63736e-23)
(0.00859424 1.27339e-05 5.24286e-23)
(0.00847391 1.3616e-05 0)
(0.00834468 1.4327e-05 6.40525e-23)
(0.00820869 1.48394e-05 0)
(0.00806798 1.51738e-05 7.46012e-23)
(0.00792434 1.53335e-05 0)
(0.00777953 1.53437e-05 -1.67461e-22)
(0.00763493 1.52153e-05 -8.77049e-23)
(0.00749193 1.49676e-05 5.82195e-24)
(0.00735163 1.46231e-05 -5.79799e-24)
(0.00721479 1.4205e-05 -9.7411e-23)
(0.00708218 1.37164e-05 -6.32399e-24)
(0.00695425 1.31911e-05 6.28953e-24)
(0.00683145 1.26123e-05 9.71795e-23)
(0.00671416 1.20269e-05 1.05008e-22)
(0.00660232 1.14145e-05 6.58788e-24)
(0.00649631 1.08057e-05 -1.00427e-22)
(0.00639585 1.01904e-05 -6.69591e-24)
(0.00630124 9.57967e-06 1.08163e-22)
(0.00621218 8.98699e-06 5.41758e-23)
(0.00612859 8.40724e-06 1.04915e-22)
(0.00605029 7.84697e-06 1.08092e-22)
(0.00597709 7.30668e-06 3.36189e-24)
(0.00590882 6.78797e-06 -5.36219e-23)
(0.00584524 6.29061e-06 0)
(0.00578619 5.8158e-06 -2.64574e-23)
(0.00573149 5.36104e-06 5.24697e-23)
(0.00568087 4.92965e-06 -5.19802e-23)
(0.0056342 4.51423e-06 -5.14446e-23)
(0.00559129 4.12217e-06 0)
(0.00555202 3.74344e-06 -1.56435e-24)
(0.00551617 3.38334e-06 1.39559e-23)
(0.0054836 3.04154e-06 7.6053e-25)
(0.00545419 2.70775e-06 1.05429e-23)
(0.00542781 2.38717e-06 1.26069e-23)
(0.00540446 2.07131e-06 -6.1963e-24)
(0.00538406 1.76107e-06 -1.07508e-23)
(0.00536658 1.45684e-06 -6.15975e-24)
(0.00535197 1.15445e-06 -2.58845e-24)
(0.00534024 8.53928e-07 6.77034e-25)
(0.00533136 5.54156e-07 2.65243e-24)
(0.00532536 2.51654e-07 -5.19096e-24)
(0.00532225 -5.44966e-08 0)
(0.00532209 -3.70154e-07 -5.26193e-24)
(0.00532502 -6.90008e-07 3.05515e-25)
(0.00533099 -1.01065e-06 1.82592e-23)
(0.00534006 -1.33994e-06 5.80234e-25)
(0.00535233 -1.67644e-06 1.0981e-24)
(0.00536786 -2.02029e-06 -1.09638e-24)
(0.00538671 -2.37607e-06 0)
(0.00540896 -2.73863e-06 0)
(0.00543477 -3.11785e-06 1.56547e-23)
(0.00546424 -3.51079e-06 -1.41663e-23)
(0.00549755 -3.91287e-06 -3.17271e-23)
(0.00553478 -4.3329e-06 4.35485e-23)
(0.00557604 -4.75887e-06 -2.82729e-23)
(0.00562139 -5.19966e-06 1.62801e-24)
(0.00567103 -5.64975e-06 4.83769e-23)
(0.00572502 -6.11202e-06 4.5848e-23)
(0.00578344 -6.58207e-06 0)
(0.00584639 -7.06251e-06 4.06584e-23)
(0.005914 -7.55177e-06 -2.12795e-23)
(0.00598629 -8.04708e-06 2.29285e-24)
(0.00606344 -8.55311e-06 1.81568e-26)
(0.00614546 -9.06734e-06 -5.96082e-23)
(0.00623265 -9.5902e-06 -1.59691e-24)
(0.00632489 -1.01096e-05 1.8133e-25)
(0.00642233 -1.06352e-05 2.2764e-23)
(0.00652488 -1.11391e-05 0)
(0.00663253 -1.16627e-05 0)
(0.00674536 -1.21395e-05 -3.86702e-23)
(0.00686293 -1.26185e-05 0)
(0.00698554 -1.30552e-05 -7.38246e-24)
(0.00711235 -1.34552e-05 -4.74099e-24)
(0.00724343 -1.3814e-05 0)
(0.00737809 -1.40921e-05 0)
(0.0075155 -1.42968e-05 0)
(0.007655 -1.44004e-05 0)
(0.00779518 -1.43684e-05 6.34647e-24)
(0.00793472 -1.42186e-05 2.07113e-27)
(0.00807242 -1.38583e-05 2.72755e-23)
(0.00820504 -1.33414e-05 7.47996e-26)
(0.00833332 -1.2692e-05 0)
(0.00845308 -1.17632e-05 3.14921e-23)
(0.00856519 -1.08018e-05 -1.03262e-23)
(0.00866621 -9.57516e-06 2.18133e-25)
(0.00875884 -8.24775e-06 -6.69857e-26)
(0.00883421 -7.09823e-06 0)
(0.0089182 -6.33802e-06 0)
(0.0103067 -4.46797e-06 1.73858e-26)
(0.0103361 -3.53648e-06 -2.62342e-24)
(0.0103777 -3.90943e-07 1.35157e-23)
(0.01038 2.73655e-06 -7.63125e-26)
(0.010376 5.52661e-06 2.0795e-25)
(0.0103429 8.61129e-06 4.2062e-23)
(0.010291 1.12096e-05 -7.3176e-25)
(0.0102179 1.38075e-05 5.34904e-25)
(0.010125 1.60259e-05 -5.37812e-25)
(0.0100167 1.79768e-05 3.55386e-25)
(0.00989349 1.96747e-05 1.93053e-22)
(0.00975842 2.10979e-05 0)
(0.00961312 2.22579e-05 0)
(0.00945999 2.31163e-05 4.15265e-24)
(0.00930135 2.36975e-05 -4.14978e-24)
(0.00913923 2.40091e-05 -2.92626e-22)
(0.00897563 2.4084e-05 1.59418e-22)
(0.00881211 2.39414e-05 1.56926e-22)
(0.00865024 2.36085e-05 3.3698e-22)
(0.0084913 2.31207e-05 0)
(0.00833614 2.25092e-05 -1.14057e-23)
(0.00818562 2.17856e-05 -3.23826e-25)
(0.0080403 2.09925e-05 1.16155e-23)
(0.00790065 2.01177e-05 0)
(0.00776715 1.9219e-05 -1.94396e-22)
(0.00763973 1.82788e-05 -6.18783e-24)
(0.00751882 1.73342e-05 3.03545e-22)
(0.00740414 1.63781e-05 0)
(0.00729603 1.54254e-05 -1.00161e-22)
(0.00719417 1.44962e-05 -6.29236e-24)
(0.00709846 1.35852e-05 -9.41383e-23)
(0.00700873 1.27017e-05 1.00219e-22)
(0.00692476 1.18476e-05 0)
(0.00684637 1.10256e-05 0)
(0.00677329 1.0236e-05 -9.89703e-23)
(0.00670536 9.48086e-06 -3.06887e-24)
(0.00664237 8.75625e-06 -4.57224e-23)
(0.00658404 8.06685e-06 4.53263e-23)
(0.00653021 7.40335e-06 5.08618e-23)
(0.00648068 6.77525e-06 0)
(0.00643531 6.1682e-06 0)
(0.00639386 5.58884e-06 1.43748e-24)
(0.00635622 5.03645e-06 4.41454e-23)
(0.00632223 4.49672e-06 -2.31606e-23)
(0.00629176 3.97742e-06 6.95089e-25)
(0.0062648 3.46601e-06 0)
(0.00624128 2.96355e-06 1.1035e-23)
(0.00622115 2.46956e-06 -5.5875e-24)
(0.00620437 1.9785e-06 7.73982e-24)
(0.00619095 1.48963e-06 -3.16263e-25)
(0.00618088 1.00124e-06 2.47875e-24)
(0.00617417 5.07889e-07 1.45581e-23)
(0.00617086 8.97647e-09 1.00775e-23)
(0.00617101 -5.04799e-07 -1.9127e-23)
(0.00617474 -1.02572e-06 1.80915e-23)
(0.00618205 -1.54896e-06 -3.63514e-23)
(0.00619299 -2.08555e-06 -3.21797e-23)
(0.00620767 -2.63446e-06 -1.05675e-24)
(0.00622616 -3.19586e-06 9.97037e-25)
(0.00624855 -3.77694e-06 2.94287e-23)
(0.00627493 -4.36954e-06 2.83075e-24)
(0.00630547 -4.98722e-06 -1.8651e-24)
(0.00634027 -5.62541e-06 -2.82788e-23)
(0.00637951 -6.27818e-06 2.71909e-23)
(0.00642328 -6.95763e-06 2.60999e-23)
(0.00647172 -7.64803e-06 0)
(0.00652488 -8.36008e-06 -4.76597e-23)
(0.00658296 -9.08586e-06 -4.53168e-23)
(0.00664603 -9.82994e-06 4.29733e-23)
(0.00671417 -1.05857e-05 -2.45473e-24)
(0.00678748 -1.13563e-05 -3.33147e-23)
(0.00686609 -1.21386e-05 -7.34959e-23)
(0.00695003 -1.29295e-05 -1.98351e-24)
(0.00703945 -1.37335e-05 3.25083e-23)
(0.00713437 -1.45483e-05 5.57709e-23)
(0.00723507 -1.53698e-05 0)
(0.00734143 -1.61861e-05 -4.26367e-23)
(0.00745356 -1.70038e-05 -2.66739e-24)
(0.00757135 -1.77917e-05 -1.99709e-24)
(0.00769477 -1.85952e-05 2.00363e-24)
(0.0078239 -1.93314e-05 2.40844e-23)
(0.00795818 -2.00559e-05 0)
(0.0080979 -2.07139e-05 0)
(0.00824212 -2.13074e-05 0)
(0.00839082 -2.18269e-05 -6.00685e-26)
(0.00854322 -2.22185e-05 6.83041e-25)
(0.00869831 -2.24878e-05 -8.91544e-24)
(0.00885528 -2.2594e-05 -1.00712e-25)
(0.00901252 -2.24913e-05 -2.34111e-23)
(0.00916849 -2.21957e-05 3.83901e-27)
(0.00932174 -2.15879e-05 1.68264e-23)
(0.00946882 -2.07447e-05 3.69461e-23)
(0.00961031 -1.96765e-05 0)
(0.00974202 -1.82383e-05 -5.83095e-23)
(0.00986462 -1.66907e-05 0)
(0.00997499 -1.48276e-05 0)
(0.0100757 -1.27632e-05 0)
(0.0101587 -1.10068e-05 -5.33067e-24)
(0.0102497 -9.4931e-06 0)
(0.0115275 -6.5508e-06 2.64492e-27)
(0.0115575 -4.68459e-06 2.47013e-24)
(0.0115996 -4.39043e-07 -1.27755e-23)
(0.0116016 4.03532e-06 -2.06807e-23)
(0.0115959 7.97429e-06 -5.79862e-23)
(0.0115594 1.22857e-05 -7.71312e-23)
(0.011502 1.60199e-05 -8.33967e-25)
(0.0114216 1.96856e-05 1.17711e-22)
(0.0113192 2.28654e-05 1.38622e-22)
(0.0111997 2.56586e-05 0)
(0.0110641 2.81054e-05 -1.81179e-22)
(0.0109155 3.0171e-05 2.01192e-22)
(0.0107557 3.18644e-05 -2.19063e-22)
(0.0105874 3.31364e-05 0)
(0.0104131 3.40137e-05 0)
(0.010235 3.45098e-05 1.07653e-25)
(0.0100552 3.46649e-05 -9.16127e-24)
(0.00987562 3.45095e-05 9.13217e-24)
(0.00969783 3.40793e-05 -1.0737e-25)
(0.00952322 3.34245e-05 0)
(0.00935276 3.2585e-05 3.43007e-22)
(0.00918737 3.15842e-05 -1.04983e-23)
(0.00902764 3.04722e-05 -3.48254e-22)
(0.00887411 2.92461e-05 -1.11886e-23)
(0.00872727 2.7972e-05 2.24613e-23)
(0.00858709 2.66401e-05 -1.12703e-23)
(0.00845399 2.52917e-05 -1.83496e-22)
(0.00832771 2.39263e-05 0)
(0.0082086 2.25619e-05 0)
(0.00809633 2.12261e-05 0)
(0.00799079 1.99143e-05 -1.85952e-22)
(0.00789181 1.86391e-05 -5.84989e-24)
(0.00779914 1.74041e-05 5.7812e-24)
(0.00771259 1.62131e-05 1.9031e-22)
(0.00763189 1.50673e-05 8.60681e-23)
(0.00755685 1.39699e-05 0)
(0.00748725 1.29155e-05 -9.05183e-23)
(0.00742279 1.19099e-05 0)
(0.00736331 1.09424e-05 -2.77025e-24)
(0.00730859 1.00234e-05 2.75656e-24)
(0.00725847 9.13542e-06 1.35359e-24)
(0.00721272 8.28558e-06 4.15985e-23)
(0.00717122 7.47231e-06 -4.3704e-23)
(0.0071338 6.67768e-06 2.22094e-23)
(0.00710034 5.91131e-06 0)
(0.00707082 5.15668e-06 2.02647e-23)
(0.00704516 4.4149e-06 -3.09299e-25)
(0.00702332 3.68408e-06 3.08653e-25)
(0.00700526 2.95741e-06 -9.61601e-24)
(0.00699099 2.23291e-06 -5.16495e-25)
(0.00698051 1.5082e-06 -7.29424e-26)
(0.00697384 7.75652e-07 -9.33275e-24)
(0.00697101 3.48369e-08 8.58673e-24)
(0.00697211 -7.26629e-07 1.83869e-23)
(0.00697725 -1.4989e-06 -1.6381e-23)
(0.00698642 -2.27645e-06 1.54249e-23)
(0.00699972 -3.07297e-06 3.20648e-23)
(0.00701723 -3.88841e-06 -3.11807e-23)
(0.00703908 -4.72285e-06 0)
(0.00706533 -5.58608e-06 -8.98555e-23)
(0.00709609 -6.46726e-06 5.86182e-23)
(0.00713155 -7.38307e-06 -1.6844e-24)
(0.00717181 -8.32751e-06 1.67493e-24)
(0.00721705 -9.29363e-06 -1.55853e-24)
(0.00726737 -1.02957e-05 -1.42041e-22)
(0.00732289 -1.13152e-05 -2.98953e-24)
(0.0073837 -1.23637e-05 4.19133e-23)
(0.00744998 -1.34312e-05 2.72375e-24)
(0.0075218 -1.45235e-05 3.22126e-26)
(0.00759925 -1.56315e-05 -7.60189e-23)
(0.0076824 -1.67587e-05 0)
(0.00777139 -1.79002e-05 3.98011e-24)
(0.00786624 -1.90522e-05 -7.75018e-24)
(0.0079671 -2.02183e-05 -5.34646e-23)
(0.00807396 -2.13967e-05 -1.04773e-22)
(0.00818708 -2.25772e-05 9.49461e-23)
(0.00830634 -2.37491e-05 -4.25875e-23)
(0.0084318 -2.49129e-05 0)
(0.00856333 -2.6037e-05 -6.5187e-23)
(0.00870087 -2.71647e-05 1.56799e-24)
(0.00884447 -2.8202e-05 4.50958e-23)
(0.00899348 -2.92042e-05 -3.04913e-25)
(0.00914813 -3.01092e-05 -9.65968e-25)
(0.0093074 -3.0912e-05 0)
(0.0094712 -3.15968e-05 0)
(0.00963862 -3.20954e-05 -1.14166e-25)
(0.00980849 -3.24087e-05 8.42331e-24)
(0.00997986 -3.24821e-05 1.56479e-23)
(0.0101509 -3.2259e-05 2.17192e-23)
(0.01032 -3.17491e-05 9.27552e-26)
(0.0104853 -3.08117e-05 -3.16549e-23)
(0.0106434 -2.9544e-05 -6.92018e-23)
(0.0107945 -2.79381e-05 0)
(0.0109347 -2.58701e-05 3.64156e-23)
(0.0110643 -2.35883e-05 2.60999e-25)
(0.0111806 -2.09529e-05 3.14686e-23)
(0.0112859 -1.79969e-05 0)
(0.0113733 -1.54691e-05 1.49523e-23)
(0.0114676 -1.29723e-05 1.29598e-26)
(0.0126514 -8.79918e-06 -1.78292e-26)
(0.0126798 -5.70845e-06 0)
(0.0127197 -2.16337e-07 0)
(0.0127193 5.80436e-06 3.78069e-23)
(0.0127095 1.10723e-05 5.52734e-23)
(0.0126679 1.67698e-05 -1.44723e-22)
(0.0126037 2.18143e-05 1.81536e-22)
(0.012515 2.66959e-05 1.10329e-22)
(0.0124029 3.09886e-05 -1.29823e-22)
(0.0122721 3.47447e-05 6.17629e-25)
(0.0121244 3.80418e-05 -6.18566e-25)
(0.0119629 4.08374e-05 -5.56096e-22)
(0.0117897 4.3136e-05 1.97948e-22)
(0.0116076 4.48783e-05 3.32202e-24)
(0.0114192 4.60909e-05 0)
(0.011227 4.67952e-05 2.5212e-22)
(0.0110332 4.7039e-05 0)
(0.0108396 4.68662e-05 0)
(0.0106482 4.6322e-05 2.89406e-22)
(0.0104603 4.54731e-05 0)
(0.0102769 4.43687e-05 -1.05869e-25)
(0.0100991 4.30472e-05 1.00212e-23)
(0.00992734 4.15644e-05 3.13296e-22)
(0.00976229 3.99323e-05 0)
(0.00960445 3.82215e-05 0)
(0.00945377 3.64353e-05 -1.06251e-23)
(0.00931069 3.46167e-05 1.05644e-23)
(0.00917496 3.27752e-05 0)
(0.0090469 3.09316e-05 0)
(0.0089262 2.91211e-05 5.40995e-24)
(0.00881273 2.73414e-05 1.67332e-22)
(0.0087063 2.5608e-05 -1.7256e-22)
(0.00860666 2.39269e-05 0)
(0.0085136 2.23032e-05 -1.76876e-22)
(0.00842684 2.07391e-05 5.3319e-24)
(0.00834618 1.9239e-05 0)
(0.00827138 1.77962e-05 8.41949e-23)
(0.00820215 1.64176e-05 1.66974e-22)
(0.00813831 1.5091e-05 -8.27158e-23)
(0.00807962 1.38272e-05 0)
(0.00802591 1.26063e-05 -2.52071e-24)
(0.00797697 1.14351e-05 -3.74943e-23)
(0.00793266 1.03109e-05 1.22808e-24)
(0.00789283 9.2125e-06 -1.22314e-24)
(0.00785735 8.15058e-06 0)
(0.00782618 7.10483e-06 1.88983e-23)
(0.00779926 6.07622e-06 1.91722e-23)
(0.00777654 5.06094e-06 8.28171e-24)
(0.00775799 4.05105e-06 4.9107e-24)
(0.00774363 3.04286e-06 1.03074e-24)
(0.00773345 2.03322e-06 -4.38699e-24)
(0.00772749 1.0122e-06 -1.6398e-23)
(0.00772579 -2.07924e-08 -1.70811e-23)
(0.00772845 -1.08046e-06 1.00059e-24)
(0.00773554 -2.15513e-06 -9.98844e-25)
(0.0077471 -3.2397e-06 0)
(0.00776323 -4.35004e-06 0)
(0.00778403 -5.48739e-06 2.92065e-23)
(0.00780961 -6.65166e-06 1.74682e-24)
(0.00784007 -7.85514e-06 5.32801e-23)
(0.00787552 -9.08468e-06 -5.32759e-23)
(0.00791616 -1.03595e-05 0)
(0.00796208 -1.16724e-05 4.66171e-23)
(0.00801347 -1.30157e-05 3.04679e-24)
(0.00807041 -1.44046e-05 -2.54257e-26)
(0.00813307 -1.58187e-05 -2.68326e-24)
(0.00820149 -1.72699e-05 -8.12649e-23)
(0.00827588 -1.87459e-05 0)
(0.00835629 -2.02531e-05 -7.57365e-23)
(0.00844279 -2.17804e-05 2.10313e-22)
(0.00853547 -2.33308e-05 8.40426e-24)
(0.00863446 -2.48973e-05 5.87973e-23)
(0.00873974 -2.64754e-05 1.16963e-22)
(0.00885146 -2.8067e-05 0)
(0.0089696 -2.96707e-05 1.97613e-22)
(0.00909439 -3.12687e-05 -8.95258e-23)
(0.00922567 -3.28524e-05 8.02433e-23)
(0.00936348 -3.44137e-05 0)
(0.00950766 -3.59227e-05 6.15261e-23)
(0.00965808 -3.74143e-05 0)
(0.00981477 -3.87895e-05 -4.16862e-23)
(0.00997701 -4.00958e-05 6.643e-23)
(0.0101449 -4.12668e-05 -4.96682e-23)
(0.0103175 -4.22874e-05 0)
(0.0104944 -4.31336e-05 -1.54171e-23)
(0.0106747 -4.37241e-05 -3.54204e-25)
(0.0108571 -4.40515e-05 -1.7474e-25)
(0.0110405 -4.40469e-05 -1.44891e-23)
(0.0112229 -4.36435e-05 4.11494e-23)
(0.0114024 -4.28407e-05 0)
(0.0115771 -4.14829e-05 0)
(0.0117434 -3.96831e-05 3.26983e-23)
(0.0119014 -3.74123e-05 2.67815e-25)
(0.0120472 -3.45858e-05 -2.68894e-25)
(0.012181 -3.14151e-05 -3.32122e-23)
(0.0123005 -2.78638e-05 -2.99027e-23)
(0.0124076 -2.38564e-05 -1.09284e-25)
(0.0124966 -2.03797e-05 -1.88113e-23)
(0.0125911 -1.66773e-05 -1.2238e-26)
(0.0136929 -1.10979e-05 0)
(0.0137176 -6.50012e-06 0)
(0.013753 3.87936e-07 0)
(0.013748 8.13834e-06 -3.61829e-23)
(0.0137321 1.49084e-05 -1.03748e-22)
(0.0136838 2.21406e-05 1.36807e-22)
(0.0136114 2.86551e-05 -1.61033e-25)
(0.0135135 3.48831e-05 -4.14362e-22)
(0.0133912 4.0425e-05 0)
(0.0132491 4.52583e-05 -5.80447e-25)
(0.0130894 4.94931e-05 -7.17661e-25)
(0.0129156 5.30906e-05 3.53804e-22)
(0.0127298 5.6052e-05 -3.82281e-22)
(0.0125349 5.83081e-05 2.46393e-25)
(0.0123338 5.98839e-05 -1.05019e-23)
(0.012129 6.08103e-05 7.13211e-24)
(0.0119228 6.11428e-05 4.88168e-22)
(0.0117172 6.09409e-05 5.27092e-22)
(0.011514 6.02608e-05 -1.07169e-21)
(0.0113147 5.91866e-05 -8.56526e-24)
(0.0111204 5.77776e-05 -2.69487e-22)
(0.0109321 5.60898e-05 -1.81593e-23)
(0.0107504 5.41839e-05 0)
(0.0105758 5.20907e-05 9.67345e-24)
(0.0104089 4.98828e-05 -9.6196e-24)
(0.0102496 4.75808e-05 9.89991e-24)
(0.0100984 4.52277e-05 -9.84384e-24)
(0.00995506 4.28453e-05 3.09336e-22)
(0.00981979 4.04575e-05 9.97642e-24)
(0.00969232 3.81069e-05 3.31769e-22)
(0.00957252 3.57946e-05 -1.00309e-23)
(0.00946017 3.3539e-05 0)
(0.00935503 3.13492e-05 0)
(0.00925686 2.92316e-05 0)
(0.00916539 2.71895e-05 0)
(0.00908039 2.52284e-05 1.53364e-22)
(0.00900162 2.33406e-05 4.91842e-24)
(0.00892878 2.15338e-05 -3.14361e-22)
(0.00886168 1.97947e-05 7.97106e-23)
(0.00880008 1.81335e-05 1.53035e-22)
(0.00874381 1.6529e-05 7.56938e-23)
(0.00869266 1.49865e-05 0)
(0.00864647 1.35021e-05 7.38803e-23)
(0.00860512 1.20516e-05 0)
(0.00856846 1.06461e-05 0)
(0.00853646 9.26165e-06 5.47479e-25)
(0.00850905 7.89886e-06 -1.74286e-23)
(0.00848621 6.55153e-06 -8.04819e-25)
(0.00846789 5.21071e-06 -8.1519e-24)
(0.00845412 3.87058e-06 -5.80467e-25)
(0.0084449 2.52714e-06 6.38657e-26)
(0.00844027 1.16802e-06 1.6376e-23)
(0.0084403 -2.07776e-07 -9.71677e-25)
(0.00844507 -1.61646e-06 -2.99355e-23)
(0.00845466 -3.04477e-06 -9.1763e-25)
(0.0084691 -4.48939e-06 1.81126e-24)
(0.00848851 -5.96795e-06 -8.93888e-25)
(0.00851302 -7.48313e-06 -1.69406e-24)
(0.00854273 -9.03457e-06 1.69352e-24)
(0.00857776 -1.06369e-05 0)
(0.00861822 -1.2275e-05 -1.54287e-24)
(0.00866431 -1.39703e-05 -9.85554e-23)
(0.00871613 -1.57139e-05 -9.36119e-23)
(0.00877385 -1.74985e-05 2.87565e-24)
(0.00883757 -1.93386e-05 8.66711e-23)
(0.00890745 -2.1213e-05 0)
(0.00898354 -2.31326e-05 -7.93937e-23)
(0.00906602 -2.50835e-05 0)
(0.00915495 -2.70722e-05 -1.47761e-22)
(0.00925039 -2.90849e-05 -1.31074e-22)
(0.00935241 -3.11241e-05 1.27469e-22)
(0.00946113 -3.31802e-05 -3.59e-24)
(0.00957652 -3.52481e-05 7.02268e-24)
(0.00969869 -3.73265e-05 -3.33841e-24)
(0.00982762 -3.94148e-05 9.39828e-23)
(0.00996348 -4.14859e-05 1.70342e-22)
(0.0101061 -4.35345e-05 0)
(0.0102555 -4.55406e-05 1.39027e-22)
(0.0104115 -4.74786e-05 -3.94932e-24)
(0.0105738 -4.9369e-05 9.96226e-23)
(0.0107425 -5.11127e-05 -8.20422e-23)
(0.0109167 -5.27431e-05 -1.28949e-22)
(0.0110966 -5.41919e-05 4.7889e-23)
(0.0112809 -5.54305e-05 -6.1212e-25)
(0.0114693 -5.64257e-05 1.47439e-23)
(0.0116608 -5.70834e-05 2.22597e-25)
(0.0118538 -5.73852e-05 1.64888e-25)
(0.0120471 -5.72476e-05 -1.65647e-25)
(0.0122387 -5.65944e-05 -3.93238e-23)
(0.0124263 -5.54111e-05 -4.8745e-23)
(0.0126082 -5.35331e-05 0)
(0.0127804 -5.10849e-05 2.4854e-25)
(0.0129429 -4.80148e-05 -2.49543e-25)
(0.013092 -4.42932e-05 -6.53237e-23)
(0.0132275 -4.00731e-05 3.16687e-23)
(0.0133477 -3.54551e-05 2.85155e-23)
(0.0134543 -3.02314e-05 -4.13887e-26)
(0.0135423 -2.56204e-05 1.79269e-23)
(0.0136344 -2.04985e-05 0)
(0.0146627 -1.33241e-05 1.62768e-29)
(0.014682 -6.95072e-06 -1.63511e-29)
(0.0147107 1.48498e-06 1.09305e-25)
(0.0146993 1.11325e-05 -1.09833e-25)
(0.0146755 1.95699e-05 9.87015e-23)
(0.0146189 2.84747e-05 1.29654e-22)
(0.0145372 3.66043e-05 -1.79307e-25)
(0.0144293 4.42955e-05 -6.37504e-25)
(0.0142964 5.12025e-05 8.92179e-25)
(0.0141431 5.72178e-05 -6.02521e-26)
(0.0139715 6.24681e-05 -2.96808e-22)
(0.0137857 6.69231e-05 -2.69458e-24)
(0.0135881 7.05911e-05 3.59728e-22)
(0.0133815 7.33921e-05 -3.85978e-22)
(0.0131689 7.5348e-05 0)
(0.0129528 7.65006e-05 -7.10203e-24)
(0.0127357 7.69138e-05 -4.58249e-22)
(0.0125196 7.66649e-05 -4.86687e-22)
(0.0123063 7.58215e-05 4.89912e-22)
(0.0120974 7.4487e-05 3.26762e-23)
(0.0118939 7.2731e-05 -1.65489e-23)
(0.0116969 7.06295e-05 0)
(0.0115069 6.82474e-05 -5.81488e-22)
(0.0113245 6.56379e-05 1.77237e-23)
(0.0111502 6.28734e-05 -5.81889e-22)
(0.010984 5.99952e-05 9.26659e-24)
(0.0108263 5.70447e-05 -1.85546e-23)
(0.0106768 5.40588e-05 3.08212e-22)
(0.0105358 5.10638e-05 3.00424e-22)